
                                 *****************
                                 * O   R   C   A *
                                 *****************

           --- An Ab Initio, DFT and Semiempirical electronic structure package ---

                  #######################################################
                  #                        -***-                        #
                  #  Department of molecular theory and spectroscopy    #
                  #              Directorship: Frank Neese              #
                  # Max Planck Institute for Chemical Energy Conversion #
                  #                  D-45470 Muelheim/Ruhr              #
                  #                       Germany                       #
                  #                                                     #
                  #                  All rights reserved                #
                  #                        -***-                        #
                  #######################################################


                         Program Version 4.0.1.2 - RELEASE -


 With contributions from (in alphabetic order):
   Daniel Aravena         : Magnetic Properties
   Michael Atanasov       : Ab Initio Ligand Field Theory
   Ute Becker             : Parallelization
   Martin Brehm           : Molecular dynamics
   Dmytro Bykov           : SCF Hessian
   Vijay G. Chilkuri      : MRCI spin determinant printing
   Dipayan Datta          : RHF DLPNO-CCSD density
   Achintya Kumar Dutta   : EOM-CC, STEOM-CC
   Dmitry Ganyushin       : Spin-Orbit,Spin-Spin,Magnetic field MRCI
   Yang Guo               : DLPNO-NEVPT2, CIM, IAO-localization
   Andreas Hansen         : Spin unrestricted coupled pair/coupled cluster methods
   Lee Huntington         : MR-EOM, pCC
   Robert Izsak           : Overlap fitted RIJCOSX, COSX-SCS-MP3, EOM
   Christian Kollmar      : KDIIS, OOCD, Brueckner-CCSD(T), CCSD density
   Simone Kossmann        : Meta GGA functionals, TD-DFT gradient, OOMP2, MP2 Hessian
   Martin Krupicka        : AUTO-CI
   Dagmar Lenk            : GEPOL surface
   Dimitrios Liakos       : Extrapolation schemes; parallel MDCI
   Dimitrios Manganas     : ROCIS; embedding schemes
   Dimitrios Pantazis     : SARC Basis sets
   Taras Petrenko         : DFT Hessian,TD-DFT gradient, ASA, ECA, R-Raman, ABS, FL, XAS/XES, NRVS
   Peter Pinski           : DLPNO-MP2
   Christoph Reimann      : Effective Core Potentials
   Marius Retegan         : Local ZFS, SOC
   Christoph Riplinger    : Optimizer, TS searches, QM/MM, DLPNO-CCSD(T), (RO)-DLPNO pert. Triples
   Tobias Risthaus        : Range-separated hybrids, TD-DFT gradient, RPA, STAB
   Michael Roemelt        : Restricted open shell CIS
   Masaaki Saitow         : Open-shell DLPNO
   Barbara Sandhoefer     : DKH picture change effects
   Kantharuban Sivalingam : CASSCF convergence, NEVPT2, FIC-MRCI
   Georgi Stoychev        : AutoAux
   Boris Wezisla          : Elementary symmetry handling
   Frank Wennmohs         : Technical directorship


 We gratefully acknowledge several colleagues who have allowed us to
 interface, adapt or use parts of their codes:
   Stefan Grimme, W. Hujo, H. Kruse,             : VdW corrections, initial TS optimization,
                  C. Bannwarth                     DFT functionals, gCP, sTDA/sTD-DF
   Ed Valeev                                     : LibInt (2-el integral package), F12 methods
   Garnet Chan, S. Sharma, J. Yang, R. Olivares  : DMRG
   Ulf Ekstrom                                   : XCFun DFT Library
   Mihaly Kallay                                 : mrcc  (arbitrary order and MRCC methods)
   Andreas Klamt, Michael Diedenhofen            : otool_cosmo (COSMO solvation model)
   Jiri Pittner, Ondrej Demel                    : Mk-CCSD
   Frank Weinhold                                : gennbo (NPA and NBO analysis)
   Christopher J. Cramer and Donald G. Truhlar   : smd solvation model


 Your calculation uses the libint2 library for the computation of 2-el integrals
 For citations please refer to: http://libint.valeyev.net

 This ORCA versions uses:
   CBLAS   interface :  Fast vector & matrix operations
   LAPACKE interface :  Fast linear algebra routines
   SCALAPACK package :  Parallel linear algebra routines




*****************************************
The coordinations will be read from file: methane.xyz
*****************************************


Your calculation utilizes the basis: 6-31G(d,p)
   H-He, Li-Ne : W. J. Hehre, R. Ditchfield and J.A. Pople, J. Chem. Phys. 56, 2257 (1972).
                 Note: He and Ne are unpublished basis sets taken from the Gaussian program.
                 Note: Li and B from J. D. Dill and J. A. Pople, J. Chem. Phys. 62, 2921 (1975).
   Na - Ar     : M. M. Francl, W. J. Pietro, W. J. Hehre, J. S. Binkley, M. S. Gordon, 
                 D. J. DeFrees and J. A. Pople, J. Chem. Phys. 77, 3654 (1982).
   K - Zn      : V. A. Rassolov, J. A. Pople, M. A. Ratner, and T. L. Windus, J. Chem. Phys. 109, 1223 (1998).

================================================================================
                                        WARNINGS
                       Please study these warnings very carefully!
================================================================================

Warning: TCutStore was < 0. Adjusted to Thresh (uncritical)

WARNING: Geometry Optimization
  ===> : Switching off AutoStart
         For restart on a previous wavefunction, please use MOREAD

INFO   : the flag for use of LIBINT has been found!

================================================================================
                                       INPUT FILE
================================================================================
NAME = geo.inp
|  1> ! Opt TightSCF B3LYP/G
|  2> ! PrintBasis 6-31G(d,p)
|  3> %geom
|  4>      	Calc_Hess true
|  5>         Recalc_Hess 10
|  6>  end #geom
|  7> %output
|  8>      print[p_mos] 1
|  9>  end #output
| 10> * xyzfile 0  1 methane.xyz
| 11> 
| 12> 
| 13>                          ****END OF INPUT****
================================================================================

                       *****************************
                       * Geometry Optimization Run *
                       *****************************

Geometry optimization settings:
Update method            Update   .... BFGS
Choice of coordinates    CoordSys .... Redundant Internals
Initial Hessian          InHess   .... Almoef's Model

Convergence Tolerances:
Energy Change            TolE     ....  5.0000e-06 Eh
Max. Gradient            TolMAXG  ....  3.0000e-04 Eh/bohr
RMS Gradient             TolRMSG  ....  1.0000e-04 Eh/bohr
Max. Displacement        TolMAXD  ....  4.0000e-03 bohr
RMS Displacement         TolRMSD  ....  2.0000e-03 bohr

------------------------------------------------------------------------------
                        ORCA OPTIMIZATION COORDINATE SETUP
------------------------------------------------------------------------------

The optimization will be done in new redundant internal coordinates
Making redundant internal coordinates   ...  (new redundants) done
Evaluating the initial hessian          ...  (Is done on the fly) done
Evaluating the coordinates              ...  done
Calculating the B-matrix                .... done
Calculating the G-matrix                .... done
Diagonalizing the G-matrix              .... done
The first mode is                       ....    1
The number of degrees of freedom        ....    9

    -----------------------------------------------------------------
                    Redundant Internal Coordinates


    -----------------------------------------------------------------
         Definition                    Initial Value    d2E/dq (diagonal element)
    -----------------------------------------------------------------
      1. B(H   1,C   0)                  1.1094         0.000000   
      2. B(H   2,C   0)                  1.1094         0.000000   
      3. B(H   3,C   0)                  1.1094         0.000000   
      4. B(H   4,C   0)                  1.1094         0.000000   
      5. A(H   1,C   0,H   3)          109.4712         0.000000   
      6. A(H   2,C   0,H   3)          109.4715         0.000000   
      7. A(H   1,C   0,H   4)          109.4711         0.000000   
      8. A(H   2,C   0,H   4)          109.4707         0.000000   
      9. A(H   3,C   0,H   4)          109.4711         0.000000   
     10. A(H   1,C   0,H   2)          109.4717         0.000000   
    -----------------------------------------------------------------

Number of atoms                         .... 5
Number of degrees of freedom            .... 10

         *************************************************************
         *                GEOMETRY OPTIMIZATION CYCLE   1            *
         *************************************************************
---------------------------------
CARTESIAN COORDINATES (ANGSTROEM)
---------------------------------
  C     -1.961840    1.572030    0.000000
  H     -0.852440    1.572020    0.000000
  H     -2.331640    2.488440   -0.504190
  H     -2.331640    1.550460    1.045730
  H     -2.331650    0.677180   -0.541550

----------------------------
CARTESIAN COORDINATES (A.U.)
----------------------------
  NO LB      ZA    FRAG     MASS         X           Y           Z
   0 C     6.0000    0    12.011   -3.707340    2.970706    0.000000
   1 H     1.0000    0     1.008   -1.610878    2.970687    0.000000
   2 H     1.0000    0     1.008   -4.406161    4.702470   -0.952781
   3 H     1.0000    0     1.008   -4.406161    2.929945    1.976143
   4 H     1.0000    0     1.008   -4.406180    1.279685   -1.023381

--------------------------------
INTERNAL COORDINATES (ANGSTROEM)
--------------------------------
 C      0   0   0     0.000000000000     0.00000000     0.00000000
 H      1   0   0     1.109400000045     0.00000000     0.00000000
 H      1   2   0     1.109399334865   109.47168527     0.00000000
 H      1   2   3     1.109400080133   109.47120852   239.99938249
 H      1   2   3     1.109410817101   109.47112906   119.99961052

---------------------------
INTERNAL COORDINATES (A.U.)
---------------------------
 C      0   0   0     0.000000000000     0.00000000     0.00000000
 H      1   0   0     2.096462173057     0.00000000     0.00000000
 H      1   2   0     2.096460916050   109.47168527     0.00000000
 H      1   2   3     2.096462324402   109.47120852   239.99938249
 H      1   2   3     2.096482614330   109.47112906   119.99961052

---------------------
BASIS SET INFORMATION
---------------------
There are 2 groups of distinct atoms

 Group   1 Type C   : 10s4p1d contracted to 3s2p1d pattern {631/31/1}
 Group   2 Type H   : 4s1p contracted to 2s1p pattern {31/1}

Atom   0C    basis set group =>   1
Atom   1H    basis set group =>   2
Atom   2H    basis set group =>   2
Atom   3H    basis set group =>   2
Atom   4H    basis set group =>   2

-------------------------
BASIS SET IN INPUT FORMAT
-------------------------

 # Basis set for element : H 
 NewGTO H 
 S 3 
   1      18.7311370000      0.0334945995
   2       2.8253937000      0.2347269467
   3       0.6401217000      0.8137573184
 S 1 
   1       0.1612778000      1.0000000000
 P 1 
   1       1.1000000000      1.0000000000
  end;

 # Basis set for element : C 
 NewGTO C 
 S 6 
   1    3047.5249000000      0.0018347002
   2     457.3695100000      0.0140373012
   3     103.9486900000      0.0688426061
   4      29.2101550000      0.2321844206
   5       9.2866630000      0.4679413416
   6       3.1639270000      0.3623120322
 S 3 
   1       7.8682724000     -0.1193324086
   2       1.8812885000     -0.1608542116
   3       0.5442493000      1.1434564826
 P 3 
   1       7.8682724000      0.0689990956
   2       1.8812885000      0.3164239798
   3       0.5442493000      0.7443082524
 S 1 
   1       0.1687144000      1.0000000000
 P 1 
   1       0.1687144000      1.0000000000
 D 1 
   1       0.8000000000      1.0000000000
  end;

------------------------------------------------------------------------------
                           ORCA GTO INTEGRAL CALCULATION
------------------------------------------------------------------------------

                         BASIS SET STATISTICS AND STARTUP INFO

 # of primitive gaussian shells          ...   35
 # of primitive gaussian functions       ...   55
 # of contracted shells                  ...   18
 # of contracted basis functions         ...   34
 Highest angular momentum                ...    2
 Maximum contraction depth               ...    6
 Integral package used                   ... LIBINT
 Integral threshhold            Thresh   ...  2.500e-11
 Primitive cut-off              TCut     ...  2.500e-12


------------------------------ INTEGRAL EVALUATION ----------------------------


 * One electron integrals 
 Pre-screening matrix                    ... done
 Shell pair data                         ... done (   0.000 sec)

-------------------------------------------------------------------------------
                                 ORCA SCF
-------------------------------------------------------------------------------

------------
SCF SETTINGS
------------
Hamiltonian:
 Density Functional     Method          .... DFT(GTOs)
 Exchange Functional    Exchange        .... B88
   X-Alpha parameter    XAlpha          ....  0.666667
   Becke's b parameter  XBeta           ....  0.004200
 Correlation Functional Correlation     .... LYP
 LDA part of GGA corr.  LDAOpt          .... VWN-3
 Gradients option       PostSCFGGA      .... off
 Hybrid DFT is turned on
   Fraction HF Exchange ScalHFX         ....  0.200000
   Scaling of DF-GGA-X  ScalDFX         ....  0.720000
   Scaling of DF-GGA-C  ScalDFC         ....  0.810000
   Scaling of DF-LDA-C  ScalLDAC        ....  1.000000
   Perturbative correction              ....  0.000000
   NL short-range parameter             ....  4.800000


General Settings:
 Integral files         IntName         .... geo
 Hartree-Fock type      HFTyp           .... RHF
 Total Charge           Charge          ....    0
 Multiplicity           Mult            ....    1
 Number of Electrons    NEL             ....   10
 Basis Dimension        Dim             ....   34
 Nuclear Repulsion      ENuc            ....     13.2004150424 Eh

Convergence Acceleration:
 DIIS                   CNVDIIS         .... on
   Start iteration      DIISMaxIt       ....    12
   Startup error        DIISStart       ....  0.200000
   # of expansion vecs  DIISMaxEq       ....     5
   Bias factor          DIISBfac        ....   1.050
   Max. coefficient     DIISMaxC        ....  10.000
 Newton-Raphson         CNVNR           .... off
 SOSCF                  CNVSOSCF        .... on
   Start iteration      SOSCFMaxIt      ....   150
   Startup grad/error   SOSCFStart      ....  0.003300
 Level Shifting         CNVShift        .... on
   Level shift para.    LevelShift      ....    0.2500
   Turn off err/grad.   ShiftErr        ....    0.0010
 Zerner damping         CNVZerner       .... off
 Static damping         CNVDamp         .... on
   Fraction old density DampFac         ....    0.7000
   Max. Damping (<1)    DampMax         ....    0.9800
   Min. Damping (>=0)   DampMin         ....    0.0000
   Turn off err/grad.   DampErr         ....    0.1000
 Fernandez-Rico         CNVRico         .... off

SCF Procedure:
 Maximum # iterations   MaxIter         ....   125
 SCF integral mode      SCFMode         .... Direct
   Integral package                     .... LIBINT
 Reset frequeny         DirectResetFreq ....    20
 Integral Threshold     Thresh          ....  2.500e-11 Eh
 Primitive CutOff       TCut            ....  2.500e-12 Eh

Convergence Tolerance:
 Convergence Check Mode ConvCheckMode   .... Total+1el-Energy
 Convergence forced     ConvForced      .... 0
 Energy Change          TolE            ....  1.000e-08 Eh
 1-El. energy change                    ....  1.000e-05 Eh
 Orbital Gradient       TolG            ....  1.000e-05
 Orbital Rotation angle TolX            ....  1.000e-05
 DIIS Error             TolErr          ....  5.000e-07


Diagonalization of the overlap matrix:
Smallest eigenvalue                        ... 2.072e-02
Time for diagonalization                   ...    0.000 sec
Threshold for overlap eigenvalues          ... 1.000e-08
Number of eigenvalues below threshold      ... 0
Time for construction of square roots      ...    0.000 sec
Total time needed                          ...    0.001 sec

-------------------
DFT GRID GENERATION
-------------------

General Integration Accuracy     IntAcc      ...  4.340
Radial Grid Type                 RadialGrid  ... Gauss-Chebyshev
Angular Grid (max. acc.)         AngularGrid ... Lebedev-110
Angular grid pruning method      GridPruning ... 3 (G Style)
Weight generation scheme         WeightScheme... Becke
Basis function cutoff            BFCut       ...    1.0000e-11
Integration weight cutoff        WCut        ...    1.0000e-14
Grids for H and He will be reduced by one unit

# of grid points (after initial pruning)     ...   4832 (   0.0 sec)
# of grid points (after weights+screening)   ...   4728 (   0.0 sec)
nearest neighbour list constructed           ...    0.0 sec
Grid point re-assignment to atoms done       ...    0.0 sec
Grid point division into batches done        ...    0.0 sec
Reduced shell lists constructed in    0.0 sec

Total number of grid points                  ...     4728
Total number of batches                      ...       76
Average number of points per batch           ...       62
Average number of grid points per atom       ...      946
Average number of shells per batch           ...    16.56 (91.99%)
Average number of basis functions per batch  ...    30.95 (91.02%)
Average number of large shells per batch     ...    15.77 (95.22%)
Average number of large basis fcns per batch ...    29.43 (95.09%)
Maximum spatial batch extension              ...  20.91, 25.60, 18.50 au
Average spatial batch extension              ...   5.43,  5.10,  4.92 au

Time for grid setup =    0.027 sec

------------------------------
INITIAL GUESS: MODEL POTENTIAL
------------------------------
Loading Hartree-Fock densities                     ... done
Calculating cut-offs                               ... done
Setting up the integral package                    ... done
Initializing the effective Hamiltonian             ... done
Starting the Coulomb interaction                   ... done (   0.0 sec)
Reading the grid                                   ... done
Mapping shells                                     ... done
Starting the XC term evaluation                    ... done (   0.0 sec)
  promolecular density results
     # of electrons  =      9.998026518
     EX              =     -6.295190531
     EC              =     -0.287609112
     EX+EC           =     -6.582799643
Transforming the Hamiltonian                       ... done (   0.0 sec)
Diagonalizing the Hamiltonian                      ... done (   0.0 sec)
Back transforming the eigenvectors                 ... done (   0.0 sec)
Now organizing SCF variables                       ... done
                      ------------------
                      INITIAL GUESS DONE (   0.2 sec)
                      ------------------
--------------
SCF ITERATIONS
--------------
ITER       Energy         Delta-E        Max-DP      RMS-DP      [F,P]     Damp
               ***  Starting incremental Fock matrix formation  ***
  0    -40.4494330190   0.000000000000 0.06463458  0.00471064  0.1968922 0.7000
  1    -40.4838838675  -0.034450848441 0.04351904  0.00349919  0.1010430 0.7000
                               ***Turning on DIIS***
  2    -40.4977001368  -0.013816269384 0.06590945  0.00584629  0.0367935 0.0000
  3    -40.5158098471  -0.018109710238 0.02800290  0.00218700  0.0566623 0.0000
  4    -40.5218683937  -0.006058546607 0.00716293  0.00072539  0.0146633 0.0000
  5    -40.5223006153  -0.000432221650 0.00246083  0.00024134  0.0036097 0.0000
                      *** Initiating the SOSCF procedure ***
                           *** Shutting down DIIS ***
                      *** Re-Reading the Fockian *** 
                      *** Removing any level shift *** 
ITER      Energy       Delta-E        Grad      Rot      Max-DP    RMS-DP
  6    -40.52233050  -0.0000298835  0.000344  0.000344  0.001194  0.000116
               *** Restarting incremental Fock matrix formation ***
  7    -40.52233274  -0.0000022418  0.000039  0.000049  0.000103  0.000007
  8    -40.52233274   0.0000000017  0.000035  0.000028  0.000055  0.000004
                  ***Gradient check signals convergence***
              ***Rediagonalizing the Fockian in SOSCF/NRSCF***

               *****************************************************
               *                     SUCCESS                       *
               *           SCF CONVERGED AFTER   9 CYCLES          *
               *****************************************************

Setting up the final grid:

General Integration Accuracy     IntAcc      ...  4.670
Radial Grid Type                 RadialGrid  ... Gauss-Chebyshev
Angular Grid (max. acc.)         AngularGrid ... Lebedev-302
Angular grid pruning method      GridPruning ... 3 (G Style)
Weight generation scheme         WeightScheme... Becke
Basis function cutoff            BFCut       ...    1.0000e-11
Integration weight cutoff        WCut        ...    1.0000e-14
Grids for H and He will be reduced by one unit

# of grid points (after initial pruning)     ...  19788 (   0.0 sec)
# of grid points (after weights+screening)   ...  19302 (   0.0 sec)
nearest neighbour list constructed           ...    0.0 sec
Grid point re-assignment to atoms done       ...    0.0 sec
Grid point division into batches done        ...    0.1 sec
Reduced shell lists constructed in    0.1 sec

Total number of grid points                  ...    19302
Total number of batches                      ...      304
Average number of points per batch           ...       63
Average number of grid points per atom       ...     3860
Average number of shells per batch           ...    15.35 (85.28%)
Average number of basis functions per batch  ...    28.66 (84.28%)
Average number of large shells per batch     ...    14.27 (92.95%)
Average number of large basis fcns per batch ...    26.46 (92.33%)
Maximum spatial batch extension              ...  20.64, 20.64, 20.64 au
Average spatial batch extension              ...   3.43,  3.12,  3.21 au

Final grid set up in    0.2 sec
Final integration                            ... done (   0.1 sec)
Change in XC energy                          ...    -0.000143190
Integrated number of electrons               ...     9.999994229
Previous integrated no of electrons          ...     9.999871104

----------------
TOTAL SCF ENERGY
----------------

Total Energy       :          -40.52247594 Eh           -1102.67263 eV

Components:
Nuclear Repulsion  :           13.20041504 Eh             359.20155 eV
Electronic Energy  :          -53.72289098 Eh           -1461.87418 eV
One Electron Energy:          -79.41018805 Eh           -2160.86107 eV
Two Electron Energy:           25.68729707 Eh             698.98689 eV

Virial components:
Potential Energy   :          -80.61874429 Eh           -2193.74756 eV
Kinetic Energy     :           40.09626834 Eh            1091.07493 eV
Virial Ratio       :            2.01062961


DFT components:
N(Alpha)           :        4.999997114496 electrons
N(Beta)            :        4.999997114496 electrons
N(Total)           :        9.999994228992 electrons
E(X)               :       -5.190702506776 Eh       
E(C)               :       -0.386269571146 Eh       
E(XC)              :       -5.576972077922 Eh       

---------------
SCF CONVERGENCE
---------------

  Last Energy change         ...   -1.2686e-08  Tolerance :   1.0000e-08
  Last MAX-Density change    ...    1.0333e-06  Tolerance :   1.0000e-07
  Last RMS-Density change    ...    1.0875e-07  Tolerance :   5.0000e-09
  Last Orbital Gradient      ...    2.9138e-07  Tolerance :   1.0000e-05
  Last Orbital Rotation      ...    4.8691e-07  Tolerance :   1.0000e-05

             **** THE GBW FILE WAS UPDATED (geo.gbw) ****
             **** DENSITY FILE WAS UPDATED (geo.scfp.tmp) ****
             **** ENERGY FILE WAS UPDATED (geo.en.tmp) ****
----------------
ORBITAL ENERGIES
----------------

  NO   OCC          E(Eh)            E(eV) 
   0   2.0000     -10.169923      -276.7377 
   1   2.0000      -0.685009       -18.6400 
   2   2.0000      -0.385591       -10.4925 
   3   2.0000      -0.385453       -10.4887 
   4   2.0000      -0.385325       -10.4852 
   5   0.0000       0.114028         3.1028 
   6   0.0000       0.170493         4.6393 
   7   0.0000       0.171105         4.6560 
   8   0.0000       0.172655         4.6982 
   9   0.0000       0.531926        14.4744 
  10   0.0000       0.533297        14.5118 
  11   0.0000       0.535582        14.5739 
  12   0.0000       0.863809        23.5054 
  13   0.0000       0.864250        23.5174 
  14   0.0000       0.866048        23.5664 
  15   0.0000       0.900874        24.5140 
  16   0.0000       1.104448        30.0536 
  17   0.0000       1.365739        37.1637 
  18   0.0000       1.365949        37.1694 
  19   0.0000       2.026496        55.1438 
  20   0.0000       2.027003        55.1576 
  21   0.0000       2.027618        55.1743 
  22   0.0000       2.042007        55.5658 
  23   0.0000       2.042096        55.5683 
  24   0.0000       2.042251        55.5725 
  25   0.0000       2.604608        70.8750 
  26   0.0000       2.604981        70.8851 
  27   0.0000       2.605029        70.8865 
  28   0.0000       2.871264        78.1311 
  29   0.0000       2.871332        78.1329 
  30   0.0000       3.063569        83.3639 
  31   0.0000       3.386707        92.1570 
  32   0.0000       3.386921        92.1628 
  33   0.0000       3.387676        92.1834 
------------------
MOLECULAR ORBITALS
------------------
                      0         1         2         3         4         5   
                 -10.16992  -0.68501  -0.38559  -0.38545  -0.38533   0.11403
                   2.00000   2.00000   2.00000   2.00000   2.00000   0.00000
                  --------  --------  --------  --------  --------  --------
  0C   1s        -0.995016 -0.196437 -0.000081  0.000078 -0.000001 -0.160127
  0C   2s        -0.036946  0.375871  0.000760 -0.001058  0.000023  0.184371
  0C   1pz        0.000001 -0.000063 -0.186245 -0.398559  0.014391 -0.001337
  0C   1px       -0.000008 -0.000189 -0.398959  0.186366 -0.003861 -0.004528
  0C   1py        0.000000  0.000024 -0.002632 -0.014678 -0.439694  0.000539
  0C   3s         0.024867  0.335896 -0.000519  0.001518 -0.000075  2.490248
  0C   2pz        0.000000 -0.000330 -0.085815 -0.182931  0.006618 -0.009777
  0C   2px        0.000006  0.000995 -0.182671  0.084701 -0.001744 -0.030337
  0C   2py       -0.000000 -0.000040 -0.001133 -0.006744 -0.201094  0.003431
  0C   1dz2       0.000002 -0.000060  0.003465 -0.019159  0.001605 -0.000102
  0C   1dxz      -0.000000  0.000041  0.005490  0.011869 -0.000427  0.000010
  0C   1dyz       0.000000 -0.000000  0.000590  0.001641  0.018389 -0.000010
  0C   1dx2y2    -0.000001  0.000060 -0.021576 -0.000129  0.000705 -0.000046
  0C   1dxy      -0.000000  0.000001  0.000077  0.000440  0.013042  0.000001
  1H   1s         0.001082  0.135223 -0.266176  0.124188 -0.002569 -0.021382
  1H   2s        -0.004374  0.048560 -0.239898  0.112344 -0.002284 -0.922937
  1H   1pz       -0.000000  0.000028 -0.003509 -0.007496  0.000272  0.000002
  1H   1px       -0.001421 -0.011632  0.006747 -0.003160  0.000064 -0.003483
  1H   1py        0.000000  0.000001 -0.000051 -0.000275 -0.008300  0.000004
  2H   1s         0.001080  0.135163  0.143949  0.071088 -0.245951 -0.025279
  2H   2s        -0.004370  0.049080  0.129338  0.063868 -0.222679 -0.982445
  2H   1pz        0.000645  0.005301  0.000010 -0.005757 -0.005706  0.001353
  2H   1px        0.000473  0.003859 -0.004906  0.004767 -0.004476  0.000999
  2H   1py       -0.001172 -0.009628 -0.006380 -0.003372  0.002635 -0.002470
  3H   1s         0.001079  0.135282 -0.028115 -0.292247  0.015609 -0.023906
  3H   2s        -0.004371  0.049002 -0.025381 -0.263438  0.014147 -0.962197
  3H   1pz       -0.001336 -0.011026 -0.002078  0.007258 -0.000520 -0.003017
  3H   1px        0.000472  0.003844 -0.007941 -0.001671  0.000206  0.001038
  3H   1py        0.000028  0.000231 -0.000078 -0.000581 -0.008290  0.000064
  4H   1s         0.001080  0.135174  0.151003  0.096034  0.232924 -0.024864
  4H   2s        -0.004371  0.049017  0.135729  0.086323  0.210916 -0.975812
  4H   1pz        0.000693  0.005696  0.000452 -0.004985  0.006358  0.001482
  4H   1px        0.000473  0.003859 -0.004780  0.005211  0.004100  0.001018
  4H   1py        0.001144  0.009403  0.006437  0.003825  0.001816  0.002459
                      6         7         8         9        10        11   
                   0.17049   0.17111   0.17265   0.53193   0.53330   0.53558
                   0.00000   0.00000   0.00000   0.00000   0.00000   0.00000
                  --------  --------  --------  --------  --------  --------
  0C   1s        -0.001451 -0.000334  0.002883  0.000085  0.000111  0.000663
  0C   2s         0.002658  0.000523 -0.004937 -0.000142 -0.003051  0.006000
  0C   1pz        0.378891 -0.034164  0.061186  0.092894  0.751927 -0.065292
  0C   1px        0.060342  0.008681 -0.385748  0.025049  0.064972  0.753143
  0C   1py       -0.032410 -0.386342 -0.014139 -0.752503  0.094224  0.016542
  0C   3s         0.020151  0.004780 -0.040577 -0.000856  0.004452 -0.020718
  0C   2pz        1.294401 -0.116024  0.201399 -0.176661 -1.430780  0.126291
  0C   2px        0.207858  0.029556 -1.287344 -0.047409 -0.121739 -1.441291
  0C   2py       -0.109960 -1.304853 -0.047033  1.437306 -0.180084 -0.031952
  0C   1dz2      -0.012275  0.000607 -0.012570  0.008672  0.050156 -0.044277
  0C   1dxz       0.011327 -0.001028  0.001822 -0.005358 -0.043717  0.004132
  0C   1dyz      -0.000361 -0.016349 -0.000447  0.061609 -0.011704 -0.001076
  0C   1dx2y2    -0.010639 -0.000170  0.016446  0.007832  0.036055  0.064993
  0C   1dxy      -0.000952 -0.011524 -0.000431  0.044077 -0.005565 -0.001047
  1H   1s        -0.021009 -0.003050  0.129446  0.016032  0.040176  0.491473
  1H   2s        -0.292511 -0.042417  1.789109  0.008326  0.019942  0.247929
  1H   1pz        0.011364 -0.001028  0.001857 -0.002603 -0.021316  0.002010
  1H   1px       -0.000657 -0.000106  0.004536 -0.001540 -0.004009 -0.046448
  1H   1py       -0.000973 -0.011650 -0.000432  0.021394 -0.002710 -0.000504
  2H   1s         0.073687  0.101840 -0.029083 -0.433908 -0.182604 -0.131804
  2H   2s         1.017992  1.420935 -0.394871 -0.217495 -0.091792 -0.062911
  2H   1pz        0.007485 -0.006549  0.003462 -0.012943 -0.025653 -0.001144
  2H   1px       -0.001018 -0.003800 -0.010586 -0.008312 -0.005059 -0.024271
  2H   1py        0.005994 -0.001508 -0.003311  0.039961  0.005607  0.005219
  3H   1s        -0.114413  0.009237 -0.060842  0.060457  0.440426 -0.202282
  3H   2s        -1.588975  0.126889 -0.838660  0.030459  0.219287 -0.096640
  3H   1pz       -0.001217 -0.000016 -0.005274 -0.005580 -0.042979  0.011469
  3H   1px        0.006216 -0.000094 -0.009196  0.000386  0.006079 -0.025227
  3H   1py       -0.000711 -0.011725 -0.000285  0.021464 -0.002278 -0.000686
  4H   1s         0.060390 -0.108439 -0.036085  0.358126 -0.298491 -0.148270
  4H   2s         0.831155 -1.512905 -0.491345  0.179753 -0.149680 -0.071018
  4H   1pz        0.007973  0.005303  0.004004  0.006508 -0.028945 -0.001753
  4H   1px       -0.000490  0.004595 -0.010292  0.005553 -0.007071 -0.024532
  4H   1py       -0.006500 -0.001103  0.003087  0.036150 -0.015599 -0.006696
                     12        13        14        15        16        17   
                   0.86381   0.86425   0.86605   0.90087   1.10445   1.36574
                   0.00000   0.00000   0.00000   0.00000   0.00000   0.00000
                  --------  --------  --------  --------  --------  --------
  0C   1s         0.001190  0.000147  0.002088 -0.086319  0.076038  0.000010
  0C   2s        -0.006524 -0.000865 -0.015477  0.830029  2.167808  0.000301
  0C   1pz        0.730118 -0.114027 -0.168442  0.004663  0.000158  0.000025
  0C   1px        0.169684  0.003638  0.740290  0.018537 -0.003508 -0.000058
  0C   1py       -0.110273 -0.750071  0.029205 -0.001773  0.000325  0.000132
  0C   3s         0.007357  0.001069  0.022110 -1.454406 -5.152007 -0.000659
  0C   2pz       -1.234444  0.192929  0.285948 -0.008314 -0.000892 -0.000014
  0C   2px       -0.287183 -0.006126 -1.257277 -0.033364  0.005110  0.000014
  0C   2py        0.186572  1.269835 -0.049592  0.003182 -0.000462 -0.000058
  0C   1dz2      -0.137088  0.015585  0.153362  0.001652  0.000439  0.051315
  0C   1dxz       0.132697 -0.020686 -0.030276  0.000906 -0.000769  0.049854
  0C   1dyz      -0.016683 -0.193899  0.004789 -0.000328 -0.000014  0.385032
  0C   1dx2y2    -0.141151  0.007669 -0.178904 -0.005023 -0.000836  0.029536
  0C   1dxy      -0.020074 -0.136241  0.005264 -0.000295  0.000037 -0.549138
  1H   1s        -0.185888 -0.003215 -0.823371 -0.626772  0.329227  0.000129
  1H   2s         0.394422  0.007873  1.728664  0.669080  0.957140  0.000073
  1H   1pz        0.047129 -0.007339 -0.010671  0.000278 -0.000520  0.022306
  1H   1px       -0.021104 -0.000370 -0.093586 -0.074459 -0.026993 -0.000005
  1H   1py       -0.007105 -0.048218  0.001858 -0.000089  0.000017 -0.245578
  2H   1s         0.551805  0.645642  0.178505 -0.597512  0.327642 -0.000220
  2H   2s        -1.130890 -1.336158 -0.354570  0.602759  0.960920  0.000336
  2H   1pz        0.004628 -0.057415 -0.024192  0.032303  0.012518  0.122920
  2H   1px       -0.020273 -0.036478  0.037275  0.024378  0.009776 -0.212970
  2H   1py        0.070381  0.042758  0.026368 -0.058374 -0.022886 -0.018268
  3H   1s        -0.712305  0.107675  0.471750 -0.605960  0.329880  0.000009
  3H   2s         1.482828 -0.221579 -0.964442  0.621695  0.958762  0.000142
  3H   1pz       -0.067859  0.009927  0.064390 -0.067592 -0.026027  0.014178
  3H   1px        0.051695 -0.005872  0.020674  0.024905  0.009445  0.025789
  3H   1py       -0.004719 -0.048493  0.000302  0.001321  0.000495  0.244902
  4H   1s         0.375509 -0.746446  0.225972 -0.600371  0.328016  0.000339
  4H   2s        -0.766013  1.547258 -0.453260  0.609195  0.960134 -0.000141
  4H   1pz        0.016164  0.054856 -0.029130  0.034902  0.013413 -0.159459
  4H   1px       -0.010234  0.042715  0.034584  0.024531  0.009722  0.187233
  4H   1py       -0.058480  0.054574 -0.028592  0.057205  0.022274  0.019158
                     18        19        20        21        22        23   
                   1.36595   2.02650   2.02700   2.02762   2.04201   2.04210
                   0.00000   0.00000   0.00000   0.00000   0.00000   0.00000
                  --------  --------  --------  --------  --------  --------
  0C   1s         0.000068 -0.000010  0.000005  0.000103  0.000004  0.000016
  0C   2s         0.001743 -0.000198  0.000076  0.002822  0.000050  0.000262
  0C   1pz        0.000146  0.014797  0.127678  0.017127  0.000409  0.001428
  0C   1px       -0.000215  0.004728  0.016291 -0.129768  0.000076  0.000394
  0C   1py       -0.000024 -0.128305  0.015437 -0.002867 -0.001116  0.000299
  0C   3s        -0.003972  0.000460 -0.000183 -0.006207 -0.000144 -0.000683
  0C   2pz       -0.000120 -0.064602 -0.554435 -0.073515 -0.001504 -0.005381
  0C   2px       -0.000038 -0.020679 -0.071054  0.559803 -0.000306 -0.001358
  0C   2py        0.000019  0.558585 -0.066865  0.012293  0.004475 -0.001238
  0C   1dz2       0.334060 -0.072552 -0.428321 -0.401909 -0.001504 -0.003507
  0C   1dxz       0.548750  0.045365  0.388688  0.051248  0.001028  0.003503
  0C   1dyz      -0.059174 -0.549239  0.100113 -0.007611 -0.004151  0.001371
  0C   1dx2y2     0.192497 -0.070975 -0.347113  0.550192 -0.001100 -0.003944
  0C   1dxy       0.049875 -0.392052  0.046839 -0.008586 -0.002979  0.000835
  1H   1s         0.000644  0.022162  0.076275 -0.596867  0.000210  0.001439
  1H   2s         0.000570 -0.003069 -0.010312  0.079678  0.000065 -0.000037
  1H   1pz        0.245702  0.026289  0.228738  0.031623  0.203583  0.583649
  1H   1px       -0.000005  0.013257  0.045503 -0.357811  0.000144  0.000898
  1H   1py        0.022318 -0.237202  0.028333 -0.005308  0.308833 -0.101194
  2H   1s         0.000513 -0.533158 -0.236274  0.153414 -0.004570 -0.001925
  2H   2s         0.000422  0.070764  0.031791 -0.019337  0.000534  0.000412
  2H   1pz       -0.182073  0.072757  0.258891  0.016055  0.339530 -0.336767
  2H   1px       -0.093145  0.045411  0.043093 -0.245739 -0.163832  0.348870
  2H   1py       -0.137760 -0.327417 -0.010860  0.020428  0.117214 -0.045984
  3H   1s        -0.000182  0.069478  0.532753  0.273477  0.001549  0.004671
  3H   2s         0.001143 -0.009351 -0.071013 -0.034693 -0.000221 -0.000416
  3H   1pz        0.081169  0.041126  0.338510  0.083431 -0.076253 -0.187283
  3H   1px        0.231091  0.005116 -0.000341 -0.254806 -0.185318 -0.550035
  3H   1py       -0.029076 -0.231587  0.025172 -0.005902 -0.568815  0.200187
  4H   1s         0.000465  0.441240 -0.373021  0.172115  0.002817 -0.004072
  4H   2s         0.000469 -0.058557  0.049924 -0.021734 -0.000249  0.000584
  4H   1pz       -0.144660 -0.011972  0.272499  0.013599 -0.464035 -0.049408
  4H   1px       -0.137848 -0.022803  0.052395 -0.247207  0.349554  0.202659
  4H   1py        0.144507 -0.310544  0.089734 -0.033441  0.134167 -0.050665
                     24        25        26        27        28        29   
                   2.04225   2.60461   2.60498   2.60503   2.87126   2.87133
                   0.00000   0.00000   0.00000   0.00000   0.00000   0.00000
                  --------  --------  --------  --------  --------  --------
  0C   1s         0.000001 -0.000013  0.000002  0.000021 -0.000018 -0.000030
  0C   2s         0.000015  0.000683  0.000062  0.000184  0.000171  0.000352
  0C   1pz        0.000045 -0.144043 -0.014688 -0.014483  0.000300  0.000475
  0C   1px        0.000004 -0.016930  0.022585  0.141667 -0.000371 -0.000442
  0C   1py        0.000537  0.012120 -0.142445  0.024128  0.000390 -0.000219
  0C   3s        -0.000039 -0.000980 -0.000062 -0.000312  0.000094  0.000045
  0C   2pz       -0.000161 -0.661111 -0.067599 -0.067232  0.000498  0.000596
  0C   2px       -0.000020 -0.076745  0.104662  0.656579 -0.000486 -0.000574
  0C   2py       -0.001882  0.055780 -0.656936  0.111331  0.000562 -0.000262
  0C   1dz2      -0.000018  0.289667  0.047996  0.255833  0.231777  0.380619
  0C   1dxz       0.000102 -0.256324 -0.026060 -0.025416  0.339250  0.643207
  0C   1dyz       0.001496  0.008230 -0.361687  0.058705  0.439282 -0.267616
  0C   1dx2y2    -0.000039  0.227041 -0.053454 -0.361283  0.133764  0.219653
  0C   1dxy       0.000860  0.021543 -0.255370  0.043085 -0.643304  0.339263
  1H   1s         0.000025 -0.005221  0.007174  0.044887  0.000137  0.000162
  1H   2s         0.000002  0.060626 -0.082393 -0.516772  0.000420  0.000502
  1H   1pz       -0.007475  0.641505  0.065401  0.064501 -0.232941 -0.441462
  1H   1px        0.000014 -0.020639  0.027926  0.175092 -0.000383 -0.000422
  1H   1py        0.522875 -0.054040  0.637467 -0.107843  0.440789 -0.232464
  2H   1s         0.001280  0.025160 -0.037118 -0.006359 -0.000112  0.000107
  2H   2s        -0.000038 -0.292643  0.430251  0.075693 -0.000460  0.000206
  2H   1pz       -0.267504  0.432157  0.372874  0.119454 -0.088539  0.435469
  2H   1px       -0.434809 -0.078870  0.124518 -0.596289  0.470358  0.008772
  2H   1py       -0.321645  0.327252  0.078270 -0.205991  0.141753  0.242855
  3H   1s         0.000103 -0.040535 -0.005755 -0.019132 -0.000246 -0.000424
  3H   2s         0.000001  0.471311  0.067499  0.223677 -0.000575 -0.000717
  3H   1pz        0.008950 -0.057552 -0.034588 -0.266310 -0.088868 -0.139283
  3H   1px        0.017260  0.321602 -0.066102 -0.519352 -0.227986 -0.411518
  3H   1py        0.134544 -0.039814  0.638700 -0.101209 -0.435013  0.244813
  4H   1s        -0.001404  0.020442  0.035887 -0.018548  0.000121 -0.000000
  4H   2s         0.000068 -0.238475 -0.415484  0.216956  0.000430 -0.000218
  4H   1pz        0.266318  0.458193 -0.253069  0.231776  0.410125  0.145637
  4H   1px        0.417579 -0.050520 -0.319544 -0.522236 -0.241742  0.403324
  4H   1py       -0.332633 -0.357812  0.109944  0.166960 -0.147777 -0.255168
                     30        31        32        33   
                   3.06357   3.38671   3.38692   3.38768
                   0.00000   0.00000   0.00000   0.00000
                  --------  --------  --------  --------
  0C   1s         0.126787 -0.000034  0.000083  0.000016
  0C   2s        -0.737027  0.000127 -0.000405 -0.000369
  0C   1pz        0.000461  0.238505 -0.772582  0.265419
  0C   1px        0.000334  0.090068 -0.250033 -0.807984
  0C   1py       -0.000048 -0.812012 -0.254602 -0.011657
  0C   3s        -1.180029  0.000399 -0.000930  0.000131
  0C   2pz       -0.000262  0.152563 -0.494574  0.170567
  0C   2px       -0.000229  0.057722 -0.160448 -0.519954
  0C   2py        0.000060 -0.520331 -0.163265 -0.007541
  0C   1dz2       0.000324  0.215593 -0.555501  0.804094
  0C   1dxz      -0.000067 -0.187109  0.606244 -0.208839
  0C   1dyz      -0.000008  0.882509  0.334850 -0.005306
  0C   1dx2y2     0.000736  0.265682 -0.712903 -0.803919
  0C   1dxy       0.000012  0.636314  0.199591  0.009244
  1H   1s         0.246557 -0.080561  0.223762  0.723130
  1H   2s         0.332352 -0.058622  0.162801  0.526342
  1H   1pz        0.000062  0.004216 -0.013621  0.004781
  1H   1px       -0.651060  0.126421 -0.351019 -1.133730
  1H   1py       -0.000007 -0.013787 -0.004321 -0.000215
  2H   1s         0.247213  0.723503 -0.200353 -0.124542
  2H   2s         0.331839  0.525213 -0.145014 -0.090559
  2H   1pz        0.296489  0.513266 -0.154325 -0.083233
  2H   1px        0.217397  0.375131 -0.107447 -0.077984
  2H   1py       -0.538247 -0.939627  0.251759  0.158824
  3H   1s         0.246823 -0.188318  0.572445 -0.465239
  3H   2s         0.331933 -0.136653  0.415326 -0.338226
  3H   1pz       -0.613633  0.279121 -0.849112  0.683499
  3H   1px        0.216988 -0.095612  0.290982 -0.253391
  3H   1py        0.012651 -0.019723  0.012869 -0.014177
  4H   1s         0.247175 -0.454735 -0.595380 -0.133588
  4H   2s         0.331911 -0.330464 -0.431953 -0.097215
  4H   1pz        0.318410 -0.339615 -0.463335 -0.096623
  4H   1px        0.217388 -0.233459 -0.311450 -0.082602
  4H   1py        0.525513 -0.582223 -0.748005 -0.166773



                    ********************************
                    * MULLIKEN POPULATION ANALYSIS *
                    ********************************

-----------------------
MULLIKEN ATOMIC CHARGES
-----------------------
   0 C :   -0.453353
   1 H :    0.114211
   2 H :    0.113072
   3 H :    0.112883
   4 H :    0.113187
Sum of atomic charges:   -0.0000000

--------------------------------
MULLIKEN REDUCED ORBITAL CHARGES
--------------------------------
  0 C s       :     3.281672  s :     3.281672
      pz      :     1.050193  p :     3.147233
      px      :     1.049065
      py      :     1.047975
      dz2     :     0.006104  d :     0.024448
      dxz     :     0.002725
      dyz     :     0.005444
      dx2y2   :     0.007456
      dxy     :     0.002719
  1 H s       :     0.874821  s :     0.874821
      pz      :     0.002208  p :     0.010968
      px      :     0.006547
      py      :     0.002213
  2 H s       :     0.875978  s :     0.875978
      pz      :     0.003102  p :     0.010950
      px      :     0.002682
      py      :     0.005166
  3 H s       :     0.876143  s :     0.876143
      pz      :     0.006093  p :     0.010974
      px      :     0.002664
      py      :     0.002216
  4 H s       :     0.875860  s :     0.875860
      pz      :     0.003244  p :     0.010952
      px      :     0.002682
      py      :     0.005027


                     *******************************
                     * LOEWDIN POPULATION ANALYSIS *
                     *******************************

----------------------
LOEWDIN ATOMIC CHARGES
----------------------
   0 C :   -0.301561
   1 H :    0.075424
   2 H :    0.075340
   3 H :    0.075430
   4 H :    0.075367

-------------------------------
LOEWDIN REDUCED ORBITAL CHARGES
-------------------------------
  0 C s       :     2.951048  s :     2.951048
      pz      :     1.102534  p :     3.306270
      px      :     1.102117
      py      :     1.101619
      dz2     :     0.011056  d :     0.044243
      dxz     :     0.004915
      dyz     :     0.009848
      dx2y2   :     0.013502
      dxy     :     0.004921
  1 H s       :     0.887791  s :     0.887791
      pz      :     0.006181  p :     0.036785
      px      :     0.024435
      py      :     0.006169
  2 H s       :     0.887889  s :     0.887889
      pz      :     0.009932  p :     0.036771
      px      :     0.008191
      py      :     0.018649
  3 H s       :     0.887772  s :     0.887772
      pz      :     0.022428  p :     0.036798
      px      :     0.008193
      py      :     0.006177
  4 H s       :     0.887859  s :     0.887859
      pz      :     0.010513  p :     0.036774
      px      :     0.008191
      py      :     0.018070


                      *****************************
                      * MAYER POPULATION ANALYSIS *
                      *****************************

  NA   - Mulliken gross atomic population
  ZA   - Total nuclear charge
  QA   - Mulliken gross atomic charge
  VA   - Mayer's total valence
  BVA  - Mayer's bonded valence
  FA   - Mayer's free valence

  ATOM       NA         ZA         QA         VA         BVA        FA
  0 C      6.4534     6.0000    -0.4534     3.9119     3.9119    -0.0000
  1 H      0.8858     1.0000     0.1142     0.9582     0.9582     0.0000
  2 H      0.8869     1.0000     0.1131     0.9587     0.9587    -0.0000
  3 H      0.8871     1.0000     0.1129     0.9587     0.9587    -0.0000
  4 H      0.8868     1.0000     0.1132     0.9586     0.9586    -0.0000

  Mayer bond orders larger than 0.1
B(  0-C ,  1-H ) :   0.9776 B(  0-C ,  2-H ) :   0.9781 B(  0-C ,  3-H ) :   0.9781 
B(  0-C ,  4-H ) :   0.9781 

-------
TIMINGS
-------

Total SCF time: 0 days 0 hours 0 min 2 sec 

Total time                  ....       2.141 sec
Sum of individual times     ....       2.131 sec  ( 99.5%)

Fock matrix formation       ....       1.801 sec  ( 84.1%)
  XC integration            ....       0.449 sec  ( 24.9% of F)
    Basis function eval.    ....       0.247 sec  ( 54.9% of XC)
    Density eval.           ....       0.049 sec  ( 10.9% of XC)
    XC-Functional eval.     ....       0.077 sec  ( 17.1% of XC)
    XC-Potential eval.      ....       0.056 sec  ( 12.5% of XC)
Diagonalization             ....       0.003 sec  (  0.1%)
Density matrix formation    ....       0.000 sec  (  0.0%)
Population analysis         ....       0.001 sec  (  0.0%)
Initial guess               ....       0.128 sec  (  6.0%)
Orbital Transformation      ....       0.000 sec  (  0.0%)
Orbital Orthonormalization  ....       0.000 sec  (  0.0%)
DIIS solution               ....       0.001 sec  (  0.0%)
SOSCF solution              ....       0.015 sec  (  0.7%)
Grid generation             ....       0.181 sec  (  8.5%)

-------------------------   --------------------
FINAL SINGLE POINT ENERGY       -40.522475941225
-------------------------   --------------------

------------------------------------------------------------------------------
                         ORCA SCF GRADIENT CALCULATION
------------------------------------------------------------------------------

Gradient of the Kohn-Sham DFT energy:
Kohn-Sham wavefunction type      ... RKS
Hartree-Fock exchange scaling    ...    0.200
Number of operators              ...    1
Number of atoms                  ...    5
Basis set dimensions             ...   34
Integral neglect threshold       ... 2.5e-11
Integral primitive cutoff        ... 2.5e-12

Nuclear repulsion gradient       ... done
One Electron Gradient            ... done
Pre-screening matrix             ... done
Starting the two electron gradient:
Two electron gradient done
Exchange-correlation gradient    ... done

------------------
CARTESIAN GRADIENT
------------------

   1   C   :    0.000156483    0.000027837   -0.000219192
   2   H   :    0.010849606   -0.000003784    0.000000758
   3   H   :   -0.003651178    0.009122349   -0.005060962
   4   H   :   -0.003704607   -0.000226841    0.010719073
   5   H   :   -0.003650304   -0.008919561   -0.005439677

Difference to translation invariance:
           :    0.0000000000    0.0000000000   -0.0000000000

Norm of the cartesian gradient     ...    0.0221606954
RMS gradient                       ...    0.0057218669
MAX gradient                       ...    0.0108496062

-------
TIMINGS
-------

Total SCF gradient time            ...        0.507 sec

One electron gradient       ....       0.003 sec  (  0.6%)
Prescreening matrices       ....       0.005 sec  (  0.9%)
Two electron gradient       ....       0.074 sec  ( 14.6%)
XC gradient                 ....       0.304 sec  ( 59.9%)

-------------------------------------------------------------------------------
                               ORCA SCF HESSIAN
-------------------------------------------------------------------------------

Hessian of the Kohn-Sham DFT energy:
Kohn-Sham wavefunction type                      ... RKS
Hartree-Fock exchange scaling                    ...    0.200
Number of operators                              ...    1
Number of atoms                                  ...    5
Basis set dimensions                             ...   34
Integral neglect threshold                       ... 2.5e-11
Integral primitive cutoff                        ... 2.5e-12

Setting up DFT Hessian calculations              ... 
Electron density on the grid                     ... found on disk
Electron density on the final grid               ... found on disk
Building xc-kernel on the grid                   ... done   (      0.0 sec)
Building xc-kernel on the final grid             ... done   (      0.0 sec)
                                                     done   (      0.1 sec)

Nuclear repulsion Hessian                        ... done   (      0.0 sec)

----------------------------------------------
Forming right-hand sides of CP-SCF equations     ...
----------------------------------------------
One electron integral derivatives                ... done   (      0.1 sec)
Transforming the overlap derivative matrices     ... done   (      0.0 sec)
Making the Q(x) pseudodensities                  ... done   (      0.0 sec)
Adding the E*S(x)*S(y) terms to the Hessian      ... done   (      0.0 sec)
Calculating energy weighted overlap derivatives  ... done   (      0.0 sec)
Two electron integral derivatives                ... done   (      0.2 sec)
Exchange-correlation integral derivatives        ... done   (      1.0 sec)
tr(F(y)Q(x)) contribution to the Hessian         ... done   (      0.0 sec)
Response fock operator R(S(x))                   ... done   (      0.1 sec)
XC Response fock operator R(S(x))                ... done   (      0.4 sec)
tr(F(y)S(x)) contribution to the Hessian         ... done   (      0.0 sec)
Transforming and finalizing RHSs                 ... done   (      0.0 sec)

----------------------------------------------
Solving the CP-SCF equations                     ...
----------------------------------------------
     CP-SCF ITERATION   0: 
     CP-SCF ITERATION   1:      0.000130652937
     CP-SCF ITERATION   2:      0.000003001519
     CP-SCF ITERATION   3:      0.000000011636
     CP-SCF ITERATION   4:      0.000000007487

                                                 ... done   (      1.5 sec)
Forming perturbed density Hessian contributions  ... done   (      0.0 sec)
Making the perturbed densities                   ... done   (      0.0 sec)
2nd integral derivative contribs                 ... done   (      0.7 sec)
Exchange-correlation Hessian                     ... done   (      1.8 sec)
Dipol derivatives                                ... done   (      0.1 sec)

Total SCF Hessian time: 0 days 0 hours 0 min 6 sec 

Writing the Hessian file to the disk             ... done


-----------------------
VIBRATIONAL FREQUENCIES
-----------------------

   0:         0.00 cm**-1
   1:         0.00 cm**-1
   2:         0.00 cm**-1
   3:         0.00 cm**-1
   4:         0.00 cm**-1
   5:         0.00 cm**-1
   6:      1386.45 cm**-1
   7:      1387.18 cm**-1
   8:      1388.47 cm**-1
   9:      1587.17 cm**-1
  10:      1587.18 cm**-1
  11:      2903.91 cm**-1
  12:      3006.07 cm**-1
  13:      3006.13 cm**-1
  14:      3006.26 cm**-1


------------
NORMAL MODES
------------

These modes are the cartesian displacements weighted by the diagonal matrix
M(i,i)=1/sqrt(m[i]) where m[i] is the mass of the displaced atom
Thus, these vectors are normalized but *not* orthogonal

                  0          1          2          3          4          5    
      0       0.000000   0.000000   0.000000   0.000000   0.000000   0.000000
      1       0.000000   0.000000   0.000000   0.000000   0.000000   0.000000
      2       0.000000   0.000000   0.000000   0.000000   0.000000   0.000000
      3       0.000000   0.000000   0.000000   0.000000   0.000000   0.000000
      4       0.000000   0.000000   0.000000   0.000000   0.000000   0.000000
      5       0.000000   0.000000   0.000000   0.000000   0.000000   0.000000
      6       0.000000   0.000000   0.000000   0.000000   0.000000   0.000000
      7       0.000000   0.000000   0.000000   0.000000   0.000000   0.000000
      8       0.000000   0.000000   0.000000   0.000000   0.000000   0.000000
      9       0.000000   0.000000   0.000000   0.000000   0.000000   0.000000
     10       0.000000   0.000000   0.000000   0.000000   0.000000   0.000000
     11       0.000000   0.000000   0.000000   0.000000   0.000000   0.000000
     12       0.000000   0.000000   0.000000   0.000000   0.000000   0.000000
     13       0.000000   0.000000   0.000000   0.000000   0.000000   0.000000
     14       0.000000   0.000000   0.000000   0.000000   0.000000   0.000000
                  6          7          8          9         10         11    
      0      -0.029621   0.001340   0.121195   0.000194  -0.000174  -0.000018
      1      -0.006501  -0.124612  -0.000215   0.000325   0.000306  -0.000017
      2       0.121036  -0.006364   0.029674  -0.000056   0.000060  -0.000114
      3      -0.022053   0.000992   0.090210   0.000107  -0.000076  -0.500125
      4       0.031607   0.605238   0.000913   0.365467   0.338125  -0.000008
      5      -0.586526   0.030857  -0.142460  -0.339325   0.366749  -0.000010
      6       0.237807   0.182257  -0.486648   0.456173   0.114015   0.166886
      7      -0.201050   0.139616  -0.249061   0.199182  -0.198795  -0.413409
      8      -0.457426   0.284696  -0.007040   0.027460  -0.445505   0.227238
      9      -0.088233   0.001015  -0.562413  -0.327941   0.339991   0.166450
     10       0.017875   0.601597   0.002470  -0.358985  -0.350915   0.009701
     11       0.067352   0.009577  -0.208921  -0.123505   0.113094  -0.470093
     12       0.225430  -0.200228  -0.485267  -0.130654  -0.451861   0.167003
     13       0.229029   0.138383   0.248235  -0.209532   0.207943   0.403924
     14      -0.465626  -0.249296   0.004841   0.436036  -0.035051   0.244228
                  12         13         14    
      0      -0.054838   0.032885   0.066484
      1      -0.042001  -0.081898   0.005870
      2      -0.061104   0.026771  -0.063682
      3       0.513022  -0.307457  -0.620539
      4      -0.008559  -0.016687   0.001206
      5      -0.012478   0.005478  -0.012964
      6       0.024778  -0.282176   0.050321
      7      -0.097804   0.699346  -0.090119
      8       0.036500  -0.388496   0.037237
      9      -0.133937   0.057274  -0.248620
     10      -0.015761  -0.013854  -0.014093
     11       0.334667  -0.137494   0.728257
     12       0.249574   0.140517   0.026633
     13       0.622594   0.307066   0.033058
     14       0.369409   0.201516   0.006280


-----------
IR SPECTRUM
-----------

 Mode    freq (cm**-1)   T**2         TX         TY         TZ
-------------------------------------------------------------------
   6:      1386.45   12.165587  (  0.805569   0.181327  -3.388771)
   7:      1387.18   11.976804  ( -0.038567   3.455978   0.177567)
   8:      1388.47   12.015859  ( -3.362090   0.006953  -0.843896)
   9:      1587.17    0.000155  ( -0.003998   0.005280  -0.010556)
  10:      1587.18    0.000144  ( -0.000185   0.005157   0.010836)
  11:      2903.91    0.001018  (  0.024562  -0.001153  -0.020341)
  12:      3006.07   28.012091  ( -3.148535  -2.416411  -3.501397)
  13:      3006.13   28.189227  (  1.887664  -4.718453   1.536931)
  14:      3006.26   27.761862  (  3.796844   0.337379  -3.637583)

The first frequency considered to be a vibration is 6
The total number of vibrations considered is 9


--------------------------
THERMOCHEMISTRY AT 298.15K
--------------------------

Temperature         ... 298.15 K
Pressure            ... 1.00 atm
Total Mass          ... 16.04 AMU

Throughout the following assumptions are being made:
  (1) The electronic state is orbitally nondegenerate
  (2) There are no thermally accessible electronically excited states
  (3) Hindered rotations indicated by low frequency modes are not
      treated as such but are treated as vibrations and this may
      cause some error
  (4) All equations used are the standard statistical mechanics
      equations for an ideal gas
  (5) All vibrations are strictly harmonic

freq.    1386.45  E(vib)   ...       0.00 
freq.    1387.18  E(vib)   ...       0.00 
freq.    1388.47  E(vib)   ...       0.00 
freq.    1587.17  E(vib)   ...       0.00 
freq.    1587.18  E(vib)   ...       0.00 
freq.    2903.91  E(vib)   ...       0.00 
freq.    3006.07  E(vib)   ...       0.00 
freq.    3006.13  E(vib)   ...       0.00 
freq.    3006.26  E(vib)   ...       0.00 

------------
INNER ENERGY
------------

The inner energy is: U= E(el) + E(ZPE) + E(vib) + E(rot) + E(trans)
    E(el)   - is the total energy from the electronic structure calculation
              = E(kin-el) + E(nuc-el) + E(el-el) + E(nuc-nuc)
    E(ZPE)  - the the zero temperature vibrational energy from the frequency calculation
    E(vib)  - the the finite temperature correction to E(ZPE) due to population
              of excited vibrational states
    E(rot)  - is the rotational thermal energy
    E(trans)- is the translational thermal energy

Summary of contributions to the inner energy U:
Electronic energy                ...    -40.52247594 Eh
Zero point energy                ...      0.04387485 Eh      27.53 kcal/mol
Thermal vibrational correction   ...      0.00003035 Eh       0.02 kcal/mol
Thermal rotational correction    ...      0.00141627 Eh       0.89 kcal/mol
Thermal translational correction ...      0.00141627 Eh       0.89 kcal/mol
-----------------------------------------------------------------------
Total thermal energy                    -40.47573819 Eh


Summary of corrections to the electronic energy:
(perhaps to be used in another calculation)
Total thermal correction                  0.00286289 Eh       1.80 kcal/mol
Non-thermal (ZPE) correction              0.04387485 Eh      27.53 kcal/mol
-----------------------------------------------------------------------
Total correction                          0.04673775 Eh      29.33 kcal/mol


--------
ENTHALPY
--------

The enthalpy is H = U + kB*T
                kB is Boltzmann's constant
Total free energy                 ...    -40.47573819 Eh 
Thermal Enthalpy correction       ...      0.00094421 Eh       0.59 kcal/mol
-----------------------------------------------------------------------
Total Enthalpy                    ...    -40.47479399 Eh


Vibrational entropy computed according to the QRRHO of S. Grimme
Chem.Eur.J. 2012 18 9955


-------
ENTROPY
-------

The entropy contributions are T*S = T*(S(el)+S(vib)+S(rot)+S(trans)
     S(el)   - electronic entropy
     S(vib)  - vibrational entropy
     S(rot)  - rotational entropy
     S(trans)- translational entropy
The entropies will be listed as mutliplied by the temperature to get
units of energy

Electronic entropy                ...      0.00000000 Eh      0.00 kcal/mol
Vibrational entropy               ...      0.00003476 Eh      0.02 kcal/mol
Rotational entropy                ...      0.00616732 Eh      3.87 kcal/mol
Translational entropy             ...      0.01627961 Eh     10.22 kcal/mol
-----------------------------------------------------------------------
Final entropy term                ...      0.02248169 Eh     14.11 kcal/mol


CAUTION: The rotational entropy is not quite correctly treated here
         because it includes a symmetry number that is not yet correctly
         implemented in ORCA!
For a nonlinear molecule the correct rotational entropy is:
    S(rot) = R*(ln(qrot/sn)+1.5)
    R    = 8.31441 J/mol/K = 1.987191683e-3 kcal/mol/K
    qrot =  459.6818563
    sn is the rotational symmetry number. We have assumed 3 here
       if it is different for your molecule then you should correct
       the printed rotational entropy by manually evaluating the equation
       as given above

For convenience we print out the resulting values for sn=1 - 12:
 sn= 1  qrot/sn=     459.6819 T*S(rot)=     4.52 kcal/mol T*S(tot)=    14.76 kcal/mol
 sn= 2  qrot/sn=     229.8409 T*S(rot)=     4.11 kcal/mol T*S(tot)=    14.35 kcal/mol
 sn= 3  qrot/sn=     153.2273 T*S(rot)=     3.87 kcal/mol T*S(tot)=    14.11 kcal/mol
 sn= 4  qrot/sn=     114.9205 T*S(rot)=     3.70 kcal/mol T*S(tot)=    13.94 kcal/mol
 sn= 5  qrot/sn=      91.9364 T*S(rot)=     3.57 kcal/mol T*S(tot)=    13.80 kcal/mol
 sn= 6  qrot/sn=      76.6136 T*S(rot)=     3.46 kcal/mol T*S(tot)=    13.70 kcal/mol
 sn= 7  qrot/sn=      65.6688 T*S(rot)=     3.37 kcal/mol T*S(tot)=    13.61 kcal/mol
 sn= 8  qrot/sn=      57.4602 T*S(rot)=     3.29 kcal/mol T*S(tot)=    13.53 kcal/mol
 sn= 9  qrot/sn=      51.0758 T*S(rot)=     3.22 kcal/mol T*S(tot)=    13.46 kcal/mol
 sn=10  qrot/sn=      45.9682 T*S(rot)=     3.16 kcal/mol T*S(tot)=    13.39 kcal/mol
 sn=11  qrot/sn=      41.7893 T*S(rot)=     3.10 kcal/mol T*S(tot)=    13.34 kcal/mol
 sn=12  qrot/sn=      38.3068 T*S(rot)=     3.05 kcal/mol T*S(tot)=    13.29 kcal/mol


-------------------
GIBBS FREE ENTHALPY
-------------------

The Gibbs free enthalpy is G = H - T*S

Total enthalpy                    ...    -40.47479399 Eh 
Total entropy correction          ...     -0.02248169 Eh    -14.11 kcal/mol
-----------------------------------------------------------------------
Final Gibbs free enthalpy         ...    -40.49727567 Eh

For completeness - the Gibbs free enthalpy minus the electronic energy
G-E(el)                           ...      0.02520027 Eh     15.81 kcal/mol

Actual Hessian File stored as geo.001.hess
------------------------------------------------------------------------------
                         ORCA GEOMETRY RELAXATION STEP
------------------------------------------------------------------------------

Reading the OPT-File                    .... done
Getting information on internals        .... done
Copying old internal coords+grads       .... done
Making the new internal coordinates     .... (new redundants).... done
Validating the new internal coordinates .... (new redundants).... done
Calculating the B-matrix                .... done
Calculating the G,G- and P matrices     .... done
Transforming gradient to internals      .... done
Projecting the internal gradient        .... done
Number of atoms                         ....   5
Number of internal coordinates          ....  10
Current Energy                          ....   -40.522475941 Eh
Current gradient norm                   ....     0.022160695 Eh/bohr
Maximum allowed component of the step   ....  0.300
Current trust radius                    ....  0.300
Evaluating the initial hessian          ....  (read) 
(Reading Exact Hessian)...  
InHessName: geo.hess	The file <geo.hess> is opened as a .hess file
done
done
Diagonalizing the Hessian               .... done
Dimension of the hessian                .... 10
Lowest eigenvalues of the non projected Hessian:
 -0.000005045  0.131465396  0.131605328  0.131842034  0.140784834
done
Projecting the Hessian                  .... done
Forming the augmented Hessian           .... done
Diagonalizing the augmented Hessian     .... done
Last element of RFO vector              ....  0.997657534
Lowest eigenvalues of augmented Hessian:
 -0.001519349  0.131465409  0.131605329  0.131842108  0.140784838
Length of the computed step             ....  0.068567089
The final length of the internal step   ....  0.068567089
Converting the step to cartesian space:
 Initial RMS(Int)=    0.0216828175
Transforming coordinates:
 Iter   0:  RMS(Cart)=    0.0177053928 RMS(Int)=    0.0216828172
 Iter   1:  RMS(Cart)=    0.0000047678 RMS(Int)=    0.0000056367
 Iter   2:  RMS(Cart)=    0.0000000807 RMS(Int)=    0.0000000959
done
Storing new coordinates                 .... done

                                .--------------------.
          ----------------------|Geometry convergence|-------------------------
          Item                value                   Tolerance       Converged
          ---------------------------------------------------------------------
          RMS gradient        0.0070073903            0.0001000000      NO
          MAX gradient        0.0113431688            0.0003000000      NO
          RMS step            0.0216828175            0.0020000000      NO
          MAX step            0.0350805098            0.0040000000      NO
          ........................................................
          Max(Bonds)      0.0186      Max(Angles)    0.03
          Max(Dihed)        0.00      Max(Improp)    0.00
          ---------------------------------------------------------------------

The optimization has not yet converged - more geometry cycles are needed


    ---------------------------------------------------------------------------
                         Redundant Internal Coordinates
                            (Angstroem and degrees)

        Definition                    Value    dE/dq     Step     New-Value
    ----------------------------------------------------------------------------
     1. B(H   1,C   0)                1.1094  0.010850 -0.0178    1.0916   
     2. B(H   2,C   0)                1.1094  0.011053 -0.0181    1.0913   
     3. B(H   3,C   0)                1.1094  0.011343 -0.0186    1.0908   
     4. B(H   4,C   0)                1.1094  0.011067 -0.0181    1.0913   
     5. A(H   1,C   0,H   3)          109.47 -0.000067    0.03    109.50   
     6. A(H   2,C   0,H   3)          109.47  0.000091   -0.03    109.44   
     7. A(H   1,C   0,H   4)          109.47 -0.000055    0.02    109.49   
     8. A(H   2,C   0,H   4)          109.47 -0.000007    0.00    109.47   
     9. A(H   3,C   0,H   4)          109.47  0.000081   -0.03    109.44   
    10. A(H   1,C   0,H   2)          109.47 -0.000043    0.01    109.49   
    ----------------------------------------------------------------------------

         *************************************************************
         *                GEOMETRY OPTIMIZATION CYCLE   2            *
         *************************************************************
---------------------------------
CARTESIAN COORDINATES (ANGSTROEM)
---------------------------------
  C     -1.961710    1.572003    0.000033
  H     -0.870095    1.572038   -0.000017
  H     -2.325785    2.473493   -0.495678
  H     -2.325807    1.550834    1.028094
  H     -2.325813    0.691762   -0.532442

----------------------------
CARTESIAN COORDINATES (A.U.)
----------------------------
  NO LB      ZA    FRAG     MASS         X           Y           Z
   0 C     6.0000    0    12.011   -3.707095    2.970655    0.000062
   1 H     1.0000    0     1.008   -1.644241    2.970722   -0.000032
   2 H     1.0000    0     1.008   -4.395097    4.674224   -0.936696
   3 H     1.0000    0     1.008   -4.395138    2.930651    1.942815
   4 H     1.0000    0     1.008   -4.395150    1.307241   -1.006169

--------------------------------
INTERNAL COORDINATES (ANGSTROEM)
--------------------------------
 C      0   0   0     0.000000000000     0.00000000     0.00000000
 H      1   0   0     1.091615348481     0.00000000     0.00000000
 H      1   2   0     1.091312553421   109.48528408     0.00000000
 H      1   2   3     1.090836273956   109.50083423   240.01501961
 H      1   2   3     1.091294600818   109.49030892   120.02236750

---------------------------
INTERNAL COORDINATES (A.U.)
---------------------------
 C      0   0   0     0.000000000000     0.00000000     0.00000000
 H      1   0   0     2.062854052215     0.00000000     0.00000000
 H      1   2   0     2.062281852475   109.48528408     0.00000000
 H      1   2   3     2.061381814724   109.50083423   240.01501961
 H      1   2   3     2.062247926973   109.49030892   120.02236750


Diagonalization of the overlap matrix:
Smallest eigenvalue                        ... 1.970e-02
Time for diagonalization                   ...    0.001 sec
Threshold for overlap eigenvalues          ... 1.000e-08
Number of eigenvalues below threshold      ... 0
Time for construction of square roots      ...    0.000 sec
Total time needed                          ...    0.001 sec

-------------------
DFT GRID GENERATION
-------------------

General Integration Accuracy     IntAcc      ...  4.340
Radial Grid Type                 RadialGrid  ... Gauss-Chebyshev
Angular Grid (max. acc.)         AngularGrid ... Lebedev-110
Angular grid pruning method      GridPruning ... 3 (G Style)
Weight generation scheme         WeightScheme... Becke
Basis function cutoff            BFCut       ...    1.0000e-11
Integration weight cutoff        WCut        ...    1.0000e-14
Grids for H and He will be reduced by one unit

# of grid points (after initial pruning)     ...   4832 (   0.0 sec)
# of grid points (after weights+screening)   ...   4726 (   0.0 sec)
nearest neighbour list constructed           ...    0.0 sec
Grid point re-assignment to atoms done       ...    0.0 sec
Grid point division into batches done        ...    0.0 sec
Reduced shell lists constructed in    0.0 sec

Total number of grid points                  ...     4726
Total number of batches                      ...       77
Average number of points per batch           ...       61
Average number of grid points per atom       ...      945
Average number of shells per batch           ...    16.54 (91.88%)
Average number of basis functions per batch  ...    30.97 (91.10%)
Average number of large shells per batch     ...    15.74 (95.19%)
Average number of large basis fcns per batch ...    29.31 (94.62%)
Maximum spatial batch extension              ...  22.36, 25.60, 18.49 au
Average spatial batch extension              ...   5.33,  4.82,  4.73 au

Time for grid setup =    0.028 sec

--------------
SCF ITERATIONS
--------------
ITER       Energy         Delta-E        Max-DP      RMS-DP      [F,P]     Damp
               ***  Starting incremental Fock matrix formation  ***
  0    -40.5229207894   0.000000000000 0.00236514  0.00018883  0.0075008 0.7000
                      *** Initiating the SOSCF procedure ***
                      *** Re-Reading the Fockian *** 
                      *** Removing any level shift *** 
ITER      Energy       Delta-E        Grad      Rot      Max-DP    RMS-DP
  1    -40.52297970  -0.0000589109  0.001054  0.001054  0.005562  0.000479
               *** Restarting incremental Fock matrix formation ***
  2    -40.52305075  -0.0000710494  0.001725  0.002446  0.005149  0.000393
  3    -40.52304290   0.0000078514  0.001803  0.001359  0.002818  0.000212
  4    -40.52307565  -0.0000327498  0.000010  0.000009  0.000019  0.000001
                 **** Energy Check signals convergence ****
              ***Rediagonalizing the Fockian in SOSCF/NRSCF***

               *****************************************************
               *                     SUCCESS                       *
               *           SCF CONVERGED AFTER   5 CYCLES          *
               *****************************************************

Setting up the final grid:

General Integration Accuracy     IntAcc      ...  4.670
Radial Grid Type                 RadialGrid  ... Gauss-Chebyshev
Angular Grid (max. acc.)         AngularGrid ... Lebedev-302
Angular grid pruning method      GridPruning ... 3 (G Style)
Weight generation scheme         WeightScheme... Becke
Basis function cutoff            BFCut       ...    1.0000e-11
Integration weight cutoff        WCut        ...    1.0000e-14
Grids for H and He will be reduced by one unit

# of grid points (after initial pruning)     ...  19788 (   0.0 sec)
# of grid points (after weights+screening)   ...  19294 (   0.0 sec)
nearest neighbour list constructed           ...    0.0 sec
Grid point re-assignment to atoms done       ...    0.0 sec
Grid point division into batches done        ...    0.1 sec
Reduced shell lists constructed in    0.2 sec

Total number of grid points                  ...    19294
Total number of batches                      ...      303
Average number of points per batch           ...       63
Average number of grid points per atom       ...     3859
Average number of shells per batch           ...    15.34 (85.22%)
Average number of basis functions per batch  ...    28.65 (84.26%)
Average number of large shells per batch     ...    14.27 (93.03%)
Average number of large basis fcns per batch ...    26.49 (92.46%)
Maximum spatial batch extension              ...  20.64, 20.64, 20.64 au
Average spatial batch extension              ...   3.41,  3.14,  3.22 au

Final grid set up in    0.2 sec
Final integration                            ... done (   0.1 sec)
Change in XC energy                          ...    -0.000136702
Integrated number of electrons               ...     9.999996919
Previous integrated no of electrons          ...     9.999952938
Total Energy       :          -40.52321235 Eh           -1102.69267 eV
  Last Energy change         ...   -4.1296e-10  Tolerance :   1.0000e-08
  Last MAX-Density change    ...    1.5974e-06  Tolerance :   1.0000e-07
             **** THE GBW FILE WAS UPDATED (geo.gbw) ****
             **** DENSITY FILE WAS UPDATED (geo.scfp.tmp) ****
             **** ENERGY FILE WAS UPDATED (geo.en.tmp) ****
Total SCF time: 0 days 0 hours 0 min 1 sec 

-------------------------   --------------------
FINAL SINGLE POINT ENERGY       -40.523212350698
-------------------------   --------------------

------------------------------------------------------------------------------
                         ORCA SCF GRADIENT CALCULATION
------------------------------------------------------------------------------

Gradient of the Kohn-Sham DFT energy:
Kohn-Sham wavefunction type      ... RKS
Hartree-Fock exchange scaling    ...    0.200
Number of operators              ...    1
Number of atoms                  ...    5
Basis set dimensions             ...   34
Integral neglect threshold       ... 2.5e-11
Integral primitive cutoff        ... 2.5e-12

Nuclear repulsion gradient       ... done
One Electron Gradient            ... done
Pre-screening matrix             ... done
Starting the two electron gradient:
Two electron gradient done
Exchange-correlation gradient    ... done

------------------
CARTESIAN GRADIENT
------------------

   1   C   :   -0.000123979    0.000010097   -0.000013265
   2   H   :   -0.000481407   -0.000000176   -0.000018492
   3   H   :    0.000204916   -0.000420300    0.000261029
   4   H   :    0.000194411    0.000003837   -0.000507783
   5   H   :    0.000206058    0.000406542    0.000278511

Difference to translation invariance:
           :   -0.0000000000    0.0000000000    0.0000000000

Norm of the cartesian gradient     ...    0.0010561633
RMS gradient                       ...    0.0002727002
MAX gradient                       ...    0.0005077834

-------
TIMINGS
-------

Total SCF gradient time            ...        0.494 sec

One electron gradient       ....       0.003 sec  (  0.6%)
Prescreening matrices       ....       0.005 sec  (  0.9%)
Two electron gradient       ....       0.065 sec  ( 13.1%)
XC gradient                 ....       0.310 sec  ( 62.8%)
------------------------------------------------------------------------------
                         ORCA GEOMETRY RELAXATION STEP
------------------------------------------------------------------------------

Reading the OPT-File                    .... done
Getting information on internals        .... done
Copying old internal coords+grads       .... done
Making the new internal coordinates     .... (new redundants).... done
Validating the new internal coordinates .... (new redundants).... done
Calculating the B-matrix                .... done
Calculating the G,G- and P matrices     .... done
Transforming gradient to internals      .... done
Projecting the internal gradient        .... done
Number of atoms                         ....   5
Number of internal coordinates          ....  10
Current Energy                          ....   -40.523212351 Eh
Current gradient norm                   ....     0.001056163 Eh/bohr
Maximum allowed component of the step   ....  0.300
Current trust radius                    ....  0.300
Updating the Hessian (BFGS)             .... done
Forming the augmented Hessian           .... done
Diagonalizing the augmented Hessian     .... done
Last element of RFO vector              ....  0.999995045
Lowest eigenvalues of augmented Hessian:
 -0.000003285  0.131465573  0.131605195  0.131831320  0.140784981
Length of the computed step             ....  0.003147997
The final length of the internal step   ....  0.003147997
Converting the step to cartesian space:
 Initial RMS(Int)=    0.0009954841
Transforming coordinates:
 Iter   0:  RMS(Cart)=    0.0008104768 RMS(Int)=    0.0009954843
 Iter   1:  RMS(Cart)=    0.0000001270 RMS(Int)=    0.0000001393
 Iter   2:  RMS(Cart)=    0.0000000001 RMS(Int)=    0.0000000001
done
Storing new coordinates                 .... done

                                .--------------------.
          ----------------------|Geometry convergence|-------------------------
          Item                value                   Tolerance       Converged
          ---------------------------------------------------------------------
          Energy change      -0.0007364095            0.0000050000      NO
          RMS gradient        0.0003320523            0.0001000000      NO
          MAX gradient        0.0005435250            0.0003000000      NO
          RMS step            0.0009954841            0.0020000000      YES
          MAX step            0.0016072244            0.0040000000      YES
          ........................................................
          Max(Bonds)      0.0009      Max(Angles)    0.03
          Max(Dihed)        0.00      Max(Improp)    0.00
          ---------------------------------------------------------------------

[...]
  0C   1dxz       0.011212  0.001318 -0.002223  0.004734  0.043196 -0.001156
  0C   1dyz      -0.000769  0.016307  0.000433 -0.060460  0.010630  0.001318
  0C   1dx2y2    -0.011164 -0.000147 -0.016092 -0.006730 -0.031083 -0.066117
  0C   1dxy      -0.001233  0.011479  0.000445 -0.043310  0.004860  0.001020
  1H   1s        -0.024752  0.002132 -0.124768 -0.011898 -0.007202 -0.498097
  1H   2s        -0.367897  0.031318 -1.836866 -0.006277 -0.003382 -0.253799
  1H   1pz        0.011132  0.001305 -0.002233  0.002181  0.020024 -0.000512
  1H   1px       -0.000767  0.000074 -0.004363  0.001043  0.000833  0.042742
  1H   1py       -0.001247  0.011491  0.000442 -0.019940  0.002252  0.000474
  2H   1s         0.074908 -0.096775  0.025699  0.434819  0.180249  0.148707
  2H   2s         1.101578 -1.439009  0.374174  0.218365  0.090030  0.072187
  2H   1pz        0.007126  0.006581 -0.003675  0.011468  0.023753  0.002686
  2H   1px       -0.000712  0.003716  0.010501  0.007344  0.003200  0.022984
  2H   1py        0.005890  0.001752  0.003045 -0.036550 -0.005138 -0.005335
  3H   1s        -0.108586 -0.011654  0.062469 -0.057038 -0.458723  0.172987
  3H   2s        -1.609513 -0.171745  0.923488 -0.028760 -0.228712  0.083179
  3H   1pz       -0.000884  0.000009  0.005211  0.004674  0.039973 -0.007587
  3H   1px        0.006389  0.000271  0.008892 -0.000447 -0.007010  0.023014
  3H   1py       -0.000995  0.011542  0.000288 -0.019866  0.001839  0.000603
  4H   1s         0.056906  0.106733  0.032576 -0.366802  0.286121  0.166353
  4H   2s         0.833152  1.586230  0.475592 -0.184765  0.143220  0.081035
  4H   1pz        0.007884 -0.004966 -0.004207 -0.006194  0.026471  0.003279
  4H   1px        0.000006 -0.004485  0.010210 -0.005294  0.004847  0.023237
  4H   1py       -0.006473  0.001023 -0.002806 -0.033404  0.013333  0.006711
                     12        13        14        15        16        17   
                   0.87350   0.87386   0.87577   0.92310   1.10955   1.36310
                   0.00000   0.00000   0.00000   0.00000   0.00000   0.00000
                  --------  --------  --------  --------  --------  --------
  0C   1s        -0.001255  0.000037 -0.001186  0.088294 -0.079741  0.000013
  0C   2s         0.005536 -0.000336  0.005950 -0.855739 -2.162675  0.000365
  0C   1pz       -0.714512  0.178683  0.213082 -0.006215  0.000465  0.000017
  0C   1px       -0.212735  0.021777 -0.737662 -0.010702  0.004321 -0.000064
  0C   1py        0.177562  0.745753 -0.029428  0.001467 -0.000467 -0.000088
  0C   3s        -0.003743  0.000496 -0.005052  1.477232  5.300352 -0.000842
  0C   2pz        1.220318 -0.305350 -0.365296  0.010876  0.000480 -0.000013
  0C   2px        0.363861 -0.037309  1.265911  0.021217 -0.009405  0.000033
  0C   2py       -0.303510 -1.275388  0.050487 -0.002756  0.000894  0.000108
  0C   1dz2       0.130842 -0.026637 -0.166871 -0.000067 -0.000307  0.045088
  0C   1dxz      -0.133198  0.033282  0.039377 -0.001286  0.000862  0.040006
  0C   1dyz       0.034987  0.198456 -0.004247  0.000245  0.000027  0.382481
  0C   1dx2y2     0.154970 -0.023496  0.176649  0.003208  0.000930  0.026007
  0C   1dxy       0.033115  0.138901 -0.005424  0.000247 -0.000042 -0.544240
  1H   1s         0.228913 -0.023932  0.807352  0.618092 -0.338199  0.000136
  1H   2s        -0.497662  0.051154 -1.734327 -0.649930 -0.989308  0.000104
  1H   1pz       -0.047562  0.011874  0.013971 -0.000399  0.000541  0.018022
  1H   1px        0.028929 -0.003020  0.101965  0.078250  0.024843  0.000012
  1H   1py        0.011795  0.049453 -0.001923  0.000066 -0.000001 -0.244907
  2H   1s        -0.608463 -0.583370 -0.144574  0.600594 -0.336443 -0.000189
  2H   2s         1.280739  1.241279  0.298047 -0.605378 -0.997544  0.000183
  2H   1pz        0.003645  0.061372  0.026074 -0.034722 -0.011590  0.125727
  2H   1px        0.023543  0.037776 -0.039716 -0.025538 -0.009296 -0.210460
  2H   1py       -0.081569 -0.040405 -0.023811  0.062556  0.021119 -0.015842
  3H   1s         0.663964 -0.162130 -0.499931  0.610469 -0.338889  0.000032
  3H   2s        -1.421893  0.344871  1.056982 -0.628200 -0.995213  0.000176
  3H   1pz        0.069842 -0.016694 -0.073559  0.072789  0.023963  0.012722
  3H   1px       -0.055868  0.011585 -0.017646 -0.026263 -0.008834  0.021699
  3H   1py        0.009377  0.050056 -0.000128 -0.001451 -0.000428  0.244771
  4H   1s        -0.314116  0.770448 -0.189645  0.602715 -0.336822  0.000303
  4H   2s         0.655074 -1.638263  0.394313 -0.610627 -0.996361  0.000103
  4H   1pz       -0.019345 -0.058250  0.031058 -0.037452 -0.012426 -0.156519
  4H   1px        0.005215 -0.046527 -0.036915 -0.025661 -0.009243  0.188754
  4H   1py        0.058685 -0.066425  0.026201 -0.061262 -0.020519  0.016635
                     18        19        20        21        22        23   
                   1.36332   2.04802   2.04809   2.04833   2.05092   2.05138
                   0.00000   0.00000   0.00000   0.00000   0.00000   0.00000
                  --------  --------  --------  --------  --------  --------
  0C   1s         0.000102  0.000011  0.000024  0.000004  0.000022 -0.000176
  0C   2s         0.002303  0.000110  0.000230  0.000036  0.000513 -0.003084
  0C   1pz        0.000256  0.002928  0.005965  0.001318 -0.005652  0.036856
  0C   1px       -0.000389  0.000120 -0.001835  0.000376 -0.009945  0.104160
  0C   1py        0.000001  0.013123 -0.007530 -0.001711  0.107931  0.011110
  0C   3s        -0.005556 -0.000352 -0.000729 -0.000109 -0.001256  0.008025
  0C   2pz       -0.000233 -0.014776 -0.030443 -0.006874  0.030053 -0.194107
  0C   2px        0.000157 -0.000246  0.010465 -0.001896  0.052063 -0.543077
  0C   2py        0.000002 -0.068887  0.039437  0.009258 -0.568352 -0.058206
  0C   1dz2       0.331853 -0.008643 -0.033329 -0.004948  0.023966  0.159801
  0C   1dxz       0.543881  0.009921  0.020446  0.004633 -0.020640  0.132647
  0C   1dyz      -0.052084  0.067038 -0.036165 -0.008844  0.545602  0.067463
  0C   1dx2y2     0.191203 -0.005032 -0.004841 -0.005542  0.084672 -0.644370
  0C   1dxy       0.039972  0.046877 -0.026784 -0.006658  0.388352  0.039626
  1H   1s         0.000848  0.000044 -0.011264  0.002067 -0.055135  0.573766
  1H   2s         0.000695  0.000216  0.001505 -0.000228  0.006383 -0.064410
  1H   1pz        0.245054  0.314983  0.543778  0.042375 -0.011775  0.079918
  1H   1px        0.000009 -0.000003 -0.006546  0.001181 -0.032297  0.336004
  1H   1py        0.017988  0.521637 -0.317987  0.198931  0.167131  0.011396
  2H   1s         0.000585  0.053287 -0.045199 -0.012347  0.532496 -0.235295
  2H   2s         0.000756 -0.005774  0.004836  0.001510 -0.059646  0.024859
  2H   1pz       -0.179474  0.057557 -0.217003 -0.489135 -0.088735  0.102426
  2H   1px       -0.096381 -0.269512  0.488361 -0.148248  0.008151  0.254297
  2H   1py       -0.137688 -0.039847  0.046211 -0.337597  0.331238 -0.006666
  3H   1s         0.000015  0.013154  0.034631  0.006307 -0.023595  0.001795
  3H   2s         0.001582 -0.001239 -0.003328 -0.000606  0.003048 -0.002795
  3H   1pz        0.081225 -0.098396 -0.157362  0.002056 -0.016684  0.084450
  3H   1px        0.230495 -0.282217 -0.512925 -0.032805 -0.023230  0.232770
  3H   1py       -0.024816 -0.315808  0.147774  0.475659  0.303083  0.030474
  4H   1s         0.000554 -0.066426  0.021989  0.003995 -0.453336 -0.342986
  4H   2s         0.000746  0.007096 -0.002415 -0.000585  0.051057  0.036752
  4H   1pz       -0.147003 -0.246082 -0.111241  0.457965  0.057662  0.115741
  4H   1px       -0.134022  0.551953  0.010383  0.183506 -0.054655  0.238936
  4H   1py        0.144447 -0.031770  0.047217 -0.355913  0.316487  0.078984
                     24        25        26        27        28        29   
                   2.05212   2.62901   2.62952   2.63077   2.91089   2.91097
                   0.00000   0.00000   0.00000   0.00000   0.00000   0.00000
                  --------  --------  --------  --------  --------  --------
  0C   1s        -0.000160 -0.000050  0.000006 -0.000015 -0.000048 -0.000028
  0C   2s        -0.001427  0.000842 -0.000299  0.001500  0.000549  0.000346
  0C   1pz       -0.103278 -0.161629  0.026119  0.003111  0.001043  0.000623
  0C   1px        0.038120  0.001562 -0.006370  0.163252 -0.000358 -0.000174
  0C   1py       -0.002224  0.026179  0.161243  0.006034  0.000181 -0.000210
  0C   3s         0.004570 -0.000994  0.000331 -0.001763  0.000186  0.000071
  0C   2pz        0.542228 -0.651338  0.105369  0.011547  0.000940  0.000412
  0C   2px       -0.197904  0.008172 -0.025997  0.661905 -0.000101  0.000022
  0C   2py        0.011478  0.105669  0.651657  0.024444  0.000646 -0.001013
  0C   1dz2       0.566642  0.337448 -0.042460  0.232343  0.410426  0.202788
  0C   1dxz      -0.369551 -0.270365  0.043678  0.004860  0.646211  0.370257
  0C   1dyz      -0.043232  0.038299  0.385027  0.014749  0.233994 -0.474090
  0C   1dx2y2     0.059558  0.188214 -0.002931 -0.414240  0.236348  0.116628
  0C   1dxy      -0.007756  0.043960  0.271851  0.010065 -0.370229  0.645914
  1H   1s         0.208168  0.000767 -0.002258  0.055858  0.000218  0.000095
  1H   2s        -0.023153 -0.006510  0.020996 -0.535102  0.000120  0.000039
  1H   1pz       -0.194613  0.641519 -0.103670 -0.011531 -0.439470 -0.251720
  1H   1px        0.122304  0.002187 -0.007059  0.179692 -0.000322 -0.000123
  1H   1py       -0.006374 -0.104142 -0.642539 -0.023925  0.251085 -0.438063
  2H   1s         0.181825  0.032131  0.042194 -0.016765  0.000071  0.000038
  2H   2s        -0.021746 -0.307567 -0.403453  0.166244  0.000023  0.000581
  2H   1pz       -0.261974  0.424208 -0.387535  0.105459  0.161079  0.421862
  2H   1px        0.090827 -0.167252 -0.184273 -0.563872  0.407422 -0.248199
  2H   1py        0.021459  0.291469 -0.124133 -0.236827  0.253059  0.131660
  3H   1s        -0.612605 -0.052543  0.007996 -0.017299 -0.000647 -0.000382
  3H   2s         0.067463  0.500636 -0.077104  0.170042 -0.001256 -0.000659
  3H   1pz       -0.349371 -0.090879  0.009093 -0.259323 -0.151571 -0.070757
  3H   1px        0.086044  0.251266 -0.014314 -0.562306 -0.419925 -0.229358
  3H   1py        0.001874 -0.088953 -0.642613 -0.018983 -0.240551  0.447624
  4H   1s         0.220983  0.019325 -0.048123 -0.020149  0.000100  0.000104
  4H   2s        -0.026068 -0.185822  0.459488  0.198860  0.000652 -0.000203
  4H   1pz       -0.259684  0.500207  0.243740  0.138741  0.431377 -0.098054
  4H   1px        0.087262 -0.104012  0.264422 -0.547051  0.011670  0.476788
  4H   1py       -0.039353 -0.337819 -0.065811  0.224635 -0.265534 -0.137732
                     30        31        32        33   
                   3.11687   3.41982   3.42002   3.42105
                   0.00000   0.00000   0.00000   0.00000
                  --------  --------  --------  --------
  0C   1s        -0.121984  0.000051 -0.000079  0.000189
  0C   2s         0.839012 -0.000480  0.000477 -0.003039
  0C   1pz       -0.001201 -0.147836  0.434991 -0.794215
  0C   1px       -0.000838 -0.237295  0.756132  0.459075
  0C   1py        0.000218  0.872748  0.279588 -0.009328
  0C   3s         1.128130 -0.000296  0.000245 -0.002228
  0C   2pz       -0.000574 -0.086305  0.254185 -0.464909
  0C   2px       -0.000137 -0.139556  0.444900  0.270440
  0C   2py        0.000124  0.511599  0.163988 -0.005492
  0C   1dz2      -0.002711 -0.030523 -0.107935 -1.015769
  0C   1dxz       0.000886  0.110024 -0.324031  0.592233
  0C   1dyz       0.000044 -0.905984 -0.321581  0.061223
  0C   1dx2y2     0.000053 -0.370838  1.063178  0.096539
  0C   1dxy      -0.000092 -0.650100 -0.208261  0.007072
  1H   1s        -0.269522  0.212519 -0.676992 -0.410162
  1H   2s        -0.321708  0.143219 -0.456225 -0.276473
  1H   1pz       -0.000078 -0.002667  0.007982 -0.014749
  1H   1px        0.662133 -0.315856  1.005830  0.608699
  1H   1py        0.000009  0.015614  0.005100 -0.000174
  2H   1s        -0.270214 -0.776222  0.195919 -0.178268
  2H   2s        -0.321764 -0.521583  0.131444 -0.119216
  2H   1pz       -0.301770 -0.519344  0.137772 -0.131670
  2H   1px       -0.220903 -0.383831  0.109054 -0.078832
  2H   1py        0.547421  0.954465 -0.231879  0.215638
  3H   1s        -0.268517  0.069196 -0.136528  0.808420
  3H   2s        -0.320759  0.046224 -0.090932  0.542512
  3H   1pz        0.622097 -0.098214  0.196260 -1.128744
  3H   1px       -0.219669  0.029644 -0.053199  0.402490
  3H   1py       -0.012848  0.016750  0.000869  0.022799
  4H   1s        -0.270039  0.494817  0.617676 -0.215853
  4H   2s        -0.321646  0.332686  0.414964 -0.144442
  4H   1pz       -0.323918  0.351446  0.449078 -0.167395
  4H   1px       -0.220823  0.237918  0.315364 -0.097102
  4H   1py       -0.534266  0.600061  0.734320 -0.255264



                    ********************************
                    * MULLIKEN POPULATION ANALYSIS *
                    ********************************

-----------------------
MULLIKEN ATOMIC CHARGES
-----------------------
   0 C :   -0.458583
   1 H :    0.115806
   2 H :    0.114229
   3 H :    0.114150
   4 H :    0.114397
Sum of atomic charges:   -0.0000000

--------------------------------
MULLIKEN REDUCED ORBITAL CHARGES
--------------------------------
  0 C s       :     3.269242  s :     3.269242
      pz      :     1.055871  p :     3.164254
      px      :     1.054471
      py      :     1.053912
      dz2     :     0.006258  d :     0.025087
      dxz     :     0.002810
      dyz     :     0.005582
      dx2y2   :     0.007635
      dxy     :     0.002802
  1 H s       :     0.872866  s :     0.872866
      pz      :     0.002360  p :     0.011328
      px      :     0.006607
      py      :     0.002361
  2 H s       :     0.874450  s :     0.874450
      pz      :     0.003236  p :     0.011320
      px      :     0.002823
      py      :     0.005262
  3 H s       :     0.874498  s :     0.874498
      pz      :     0.006170  p :     0.011351
      px      :     0.002809
      py      :     0.002372
  4 H s       :     0.874281  s :     0.874281
      pz      :     0.003374  p :     0.011322
      px      :     0.002822
      py      :     0.005126


                     *******************************
                     * LOEWDIN POPULATION ANALYSIS *
                     *******************************

----------------------
LOEWDIN ATOMIC CHARGES
----------------------
   0 C :   -0.298176
   1 H :    0.074684
   2 H :    0.074477
   3 H :    0.074507
   4 H :    0.074509

-------------------------------
LOEWDIN REDUCED ORBITAL CHARGES
-------------------------------
  0 C s       :     2.936329  s :     2.936329
      pz      :     1.105885  p :     3.316093
      px      :     1.105205
      py      :     1.105003
      dz2     :     0.011427  d :     0.045754
      dxz     :     0.005103
      dyz     :     0.010172
      dx2y2   :     0.013949
      dxy     :     0.005103
  1 H s       :     0.886754  s :     0.886754
      pz      :     0.006754  p :     0.038562
      px      :     0.025064
      py      :     0.006744
  2 H s       :     0.886961  s :     0.886961
      pz      :     0.010523  p :     0.038562
      px      :     0.008780
      py      :     0.019260
  3 H s       :     0.886845  s :     0.886845
      pz      :     0.023071  p :     0.038648
      px      :     0.008798
      py      :     0.006780
  4 H s       :     0.886922  s :     0.886922
      pz      :     0.011107  p :     0.038569
      px      :     0.008781
      py      :     0.018682


                      *****************************
                      * MAYER POPULATION ANALYSIS *
                      *****************************

  NA   - Mulliken gross atomic population
  ZA   - Total nuclear charge
  QA   - Mulliken gross atomic charge
  VA   - Mayer's total valence
  BVA  - Mayer's bonded valence
  FA   - Mayer's free valence

  ATOM       NA         ZA         QA         VA         BVA        FA
  0 C      6.4586     6.0000    -0.4586     3.9165     3.9165     0.0000
  1 H      0.8842     1.0000     0.1158     0.9572     0.9572    -0.0000
  2 H      0.8858     1.0000     0.1142     0.9578     0.9578     0.0000
  3 H      0.8858     1.0000     0.1142     0.9578     0.9578    -0.0000
  4 H      0.8856     1.0000     0.1144     0.9578     0.9578    -0.0000

  Mayer bond orders larger than 0.1
B(  0-C ,  1-H ) :   0.9786 B(  0-C ,  2-H ) :   0.9794 B(  0-C ,  3-H ) :   0.9792 
B(  0-C ,  4-H ) :   0.9793 

-------
TIMINGS
-------

Total SCF time: 0 days 0 hours 0 min 1 sec 

Total time                  ....       1.033 sec
Sum of individual times     ....       1.026 sec  ( 99.3%)

Fock matrix formation       ....       0.818 sec  ( 79.2%)
  XC integration            ....       0.243 sec  ( 29.8% of F)
    Basis function eval.    ....       0.135 sec  ( 55.5% of XC)
    Density eval.           ....       0.027 sec  ( 10.9% of XC)
    XC-Functional eval.     ....       0.040 sec  ( 16.5% of XC)
    XC-Potential eval.      ....       0.030 sec  ( 12.4% of XC)
Diagonalization             ....       0.000 sec  (  0.0%)
Density matrix formation    ....       0.000 sec  (  0.0%)
Population analysis         ....       0.001 sec  (  0.1%)
Initial guess               ....       0.000 sec  (  0.0%)
Orbital Transformation      ....       0.000 sec  (  0.0%)
Orbital Orthonormalization  ....       0.000 sec  (  0.0%)
DIIS solution               ....       0.000 sec  (  0.0%)
SOSCF solution              ....       0.018 sec  (  1.7%)
Grid generation             ....       0.188 sec  ( 18.2%)

-------------------------   --------------------
FINAL SINGLE POINT ENERGY       -40.523213890993
-------------------------   --------------------

                                *** OPTIMIZATION RUN DONE ***

                            ***************************************
                            *     ORCA property calculations      *
                            ***************************************

                                    ---------------------
                                    Active property flags
                                    ---------------------
   (+) Dipole Moment


------------------------------------------------------------------------------
                       ORCA ELECTRIC PROPERTIES CALCULATION
------------------------------------------------------------------------------

Dipole Moment Calculation                       ... on
Quadrupole Moment Calculation                   ... off
Polarizability Calculation                      ... off
GBWName                                         ... geo.gbw
Electron density file                           ... geo.scfp.tmp
The origin for moment calculation is the CENTER OF MASS  = (-3.706985,  2.970647  0.000090)

-------------
DIPOLE MOMENT
-------------
                                X             Y             Z
Electronic contribution:     -0.00085      -0.00014       0.00130
Nuclear contribution   :     -0.00097       0.00014      -0.00025
                        -----------------------------------------
Total Dipole Moment    :     -0.00182      -0.00000       0.00105
                        -----------------------------------------
Magnitude (a.u.)       :      0.00210
Magnitude (Debye)      :      0.00534


Timings for individual modules:

Sum of individual times         ...       14.910 sec (=   0.248 min)
GTO integral calculation        ...        1.122 sec (=   0.019 min)   7.5 %
SCF iterations                  ...        5.698 sec (=   0.095 min)  38.2 %
SCF Gradient evaluation         ...        1.545 sec (=   0.026 min)  10.4 %
Geometry relaxation             ...        0.107 sec (=   0.002 min)   0.7 %
Analytical frequency calculation...        6.438 sec (=   0.107 min)  43.2 %
                             ****ORCA TERMINATED NORMALLY****
TOTAL RUN TIME: 0 days 0 hours 0 minutes 15 seconds 101 msec
