
                                 *****************
                                 * O   R   C   A *
                                 *****************

           --- An Ab Initio, DFT and Semiempirical electronic structure package ---

                  #######################################################
                  #                        -***-                        #
                  #  Department of molecular theory and spectroscopy    #
                  #              Directorship: Frank Neese              #
                  # Max Planck Institute for Chemical Energy Conversion #
                  #                  D-45470 Muelheim/Ruhr              #
                  #                       Germany                       #
                  #                                                     #
                  #                  All rights reserved                #
                  #                        -***-                        #
                  #######################################################


                         Program Version 4.0.1.2 - RELEASE -


 With contributions from (in alphabetic order):
   Daniel Aravena         : Magnetic Properties
   Michael Atanasov       : Ab Initio Ligand Field Theory
   Ute Becker             : Parallelization
   Martin Brehm           : Molecular dynamics
   Dmytro Bykov           : SCF Hessian
   Vijay G. Chilkuri      : MRCI spin determinant printing
   Dipayan Datta          : RHF DLPNO-CCSD density
   Achintya Kumar Dutta   : EOM-CC, STEOM-CC
   Dmitry Ganyushin       : Spin-Orbit,Spin-Spin,Magnetic field MRCI
   Yang Guo               : DLPNO-NEVPT2, CIM, IAO-localization
   Andreas Hansen         : Spin unrestricted coupled pair/coupled cluster methods
   Lee Huntington         : MR-EOM, pCC
   Robert Izsak           : Overlap fitted RIJCOSX, COSX-SCS-MP3, EOM
   Christian Kollmar      : KDIIS, OOCD, Brueckner-CCSD(T), CCSD density
   Simone Kossmann        : Meta GGA functionals, TD-DFT gradient, OOMP2, MP2 Hessian
   Martin Krupicka        : AUTO-CI
   Dagmar Lenk            : GEPOL surface
   Dimitrios Liakos       : Extrapolation schemes; parallel MDCI
   Dimitrios Manganas     : ROCIS; embedding schemes
   Dimitrios Pantazis     : SARC Basis sets
   Taras Petrenko         : DFT Hessian,TD-DFT gradient, ASA, ECA, R-Raman, ABS, FL, XAS/XES, NRVS
   Peter Pinski           : DLPNO-MP2
   Christoph Reimann      : Effective Core Potentials
   Marius Retegan         : Local ZFS, SOC
   Christoph Riplinger    : Optimizer, TS searches, QM/MM, DLPNO-CCSD(T), (RO)-DLPNO pert. Triples
   Tobias Risthaus        : Range-separated hybrids, TD-DFT gradient, RPA, STAB
   Michael Roemelt        : Restricted open shell CIS
   Masaaki Saitow         : Open-shell DLPNO
   Barbara Sandhoefer     : DKH picture change effects
   Kantharuban Sivalingam : CASSCF convergence, NEVPT2, FIC-MRCI
   Georgi Stoychev        : AutoAux
   Boris Wezisla          : Elementary symmetry handling
   Frank Wennmohs         : Technical directorship


 We gratefully acknowledge several colleagues who have allowed us to
 interface, adapt or use parts of their codes:
   Stefan Grimme, W. Hujo, H. Kruse,             : VdW corrections, initial TS optimization,
                  C. Bannwarth                     DFT functionals, gCP, sTDA/sTD-DF
   Ed Valeev                                     : LibInt (2-el integral package), F12 methods
   Garnet Chan, S. Sharma, J. Yang, R. Olivares  : DMRG
   Ulf Ekstrom                                   : XCFun DFT Library
   Mihaly Kallay                                 : mrcc  (arbitrary order and MRCC methods)
   Andreas Klamt, Michael Diedenhofen            : otool_cosmo (COSMO solvation model)
   Jiri Pittner, Ondrej Demel                    : Mk-CCSD
   Frank Weinhold                                : gennbo (NPA and NBO analysis)
   Christopher J. Cramer and Donald G. Truhlar   : smd solvation model


 Your calculation uses the libint2 library for the computation of 2-el integrals
 For citations please refer to: http://libint.valeyev.net

 This ORCA versions uses:
   CBLAS   interface :  Fast vector & matrix operations
   LAPACKE interface :  Fast linear algebra routines
   SCALAPACK package :  Parallel linear algebra routines




*****************************************
The coordinations will be read from file: geo.xyz
*****************************************


Your calculation utilizes the basis: 6-31G(d,p)
   H-He, Li-Ne : W. J. Hehre, R. Ditchfield and J.A. Pople, J. Chem. Phys. 56, 2257 (1972).
                 Note: He and Ne are unpublished basis sets taken from the Gaussian program.
                 Note: Li and B from J. D. Dill and J. A. Pople, J. Chem. Phys. 62, 2921 (1975).
   Na - Ar     : M. M. Francl, W. J. Pietro, W. J. Hehre, J. S. Binkley, M. S. Gordon, 
                 D. J. DeFrees and J. A. Pople, J. Chem. Phys. 77, 3654 (1982).
   K - Zn      : V. A. Rassolov, J. A. Pople, M. A. Ratner, and T. L. Windus, J. Chem. Phys. 109, 1223 (1998).

================================================================================
                                        WARNINGS
                       Please study these warnings very carefully!
================================================================================

WARNING: Gradients needed for Numerical Frequencies
  ===> : Setting RunTyp to EnGrad
Warning: TCutStore was < 0. Adjusted to Thresh (uncritical)

INFO   : the flag for use of LIBINT has been found!

================================================================================
                                       INPUT FILE
================================================================================
NAME = ram.inp
|  1> ! TightSCF B3LYP/G NUMFREQ
|  2> ! PrintBasis 6-31G(d,p)
|  3> 
|  4> %ELPROP
|  5>    POLAR 1
|  6> END
|  7> 
|  8> %output
|  9>      print[p_mos] 1
| 10>  end #output
| 11> * xyzfile 0  1 geo.xyz
| 12> 
| 13> 
| 14>                          ****END OF INPUT****
================================================================================

                     *******************************
                     * Energy+Gradient Calculation *
                     *******************************

---------------------------------
CARTESIAN COORDINATES (ANGSTROEM)
---------------------------------
  C     -1.961565    1.571986    0.000070
  H     -0.869246    1.572042    0.000055
  H     -2.326154    2.473998   -0.496086
  H     -2.326061    1.550838    1.028849
  H     -2.326184    0.691266   -0.532898

----------------------------
CARTESIAN COORDINATES (A.U.)
----------------------------
  NO LB      ZA    FRAG     MASS         X           Y           Z
   0 C     6.0000    0    12.011   -3.706821    2.970624    0.000133
   1 H     1.0000    0     1.008   -1.642638    2.970729    0.000104
   2 H     1.0000    0     1.008   -4.395793    4.675179   -0.937467
   3 H     1.0000    0     1.008   -4.395619    2.930658    1.944243
   4 H     1.0000    0     1.008   -4.395850    1.306303   -1.007031

--------------------------------
INTERNAL COORDINATES (ANGSTROEM)
--------------------------------
 C      0   0   0     0.000000000000     0.00000000     0.00000000
 H      1   0   0     1.092318484469     0.00000000     0.00000000
 H      1   2   0     1.092117816652   109.49884773     0.00000000
 H      1   2   3     1.091646003569   109.50629699   240.01037643
 H      1   2   3     1.092094539173   109.50597858   120.00600503

---------------------------
INTERNAL COORDINATES (A.U.)
---------------------------
 C      0   0   0     0.000000000000     0.00000000     0.00000000
 H      1   0   0     2.064182786667     0.00000000     0.00000000
 H      1   2   0     2.063803579448   109.49884773     0.00000000
 H      1   2   3     2.062911981935   109.50629699   240.01037643
 H      1   2   3     2.063759591388   109.50597858   120.00600503

---------------------
BASIS SET INFORMATION
---------------------
There are 2 groups of distinct atoms

 Group   1 Type C   : 10s4p1d contracted to 3s2p1d pattern {631/31/1}
 Group   2 Type H   : 4s1p contracted to 2s1p pattern {31/1}

Atom   0C    basis set group =>   1
Atom   1H    basis set group =>   2
Atom   2H    basis set group =>   2
Atom   3H    basis set group =>   2
Atom   4H    basis set group =>   2

-------------------------
BASIS SET IN INPUT FORMAT
-------------------------

 # Basis set for element : H 
 NewGTO H 
 S 3 
   1      18.7311370000      0.0334945995
   2       2.8253937000      0.2347269467
   3       0.6401217000      0.8137573184
 S 1 
   1       0.1612778000      1.0000000000
 P 1 
   1       1.1000000000      1.0000000000
  end;

 # Basis set for element : C 
 NewGTO C 
 S 6 
   1    3047.5249000000      0.0018347002
   2     457.3695100000      0.0140373012
   3     103.9486900000      0.0688426061
   4      29.2101550000      0.2321844206
   5       9.2866630000      0.4679413416
   6       3.1639270000      0.3623120322
 S 3 
   1       7.8682724000     -0.1193324086
   2       1.8812885000     -0.1608542116
   3       0.5442493000      1.1434564826
 P 3 
   1       7.8682724000      0.0689990956
   2       1.8812885000      0.3164239798
   3       0.5442493000      0.7443082524
 S 1 
   1       0.1687144000      1.0000000000
 P 1 
   1       0.1687144000      1.0000000000
 D 1 
   1       0.8000000000      1.0000000000
  end;

------------------------------------------------------------------------------
                           ORCA GTO INTEGRAL CALCULATION
------------------------------------------------------------------------------

                         BASIS SET STATISTICS AND STARTUP INFO

 # of primitive gaussian shells          ...   35
 # of primitive gaussian functions       ...   55
 # of contracted shells                  ...   18
 # of contracted basis functions         ...   34
 Highest angular momentum                ...    2
 Maximum contraction depth               ...    6
 Integral package used                   ... LIBINT
 Integral threshhold            Thresh   ...  2.500e-11
 Primitive cut-off              TCut     ...  2.500e-12


------------------------------ INTEGRAL EVALUATION ----------------------------


 * One electron integrals 
 Pre-screening matrix                    ... done
 Shell pair data                         ... done (   0.000 sec)

-------------------------------------------------------------------------------
                                 ORCA SCF
-------------------------------------------------------------------------------

------------
SCF SETTINGS
------------
Hamiltonian:
 Density Functional     Method          .... DFT(GTOs)
 Exchange Functional    Exchange        .... B88
   X-Alpha parameter    XAlpha          ....  0.666667
   Becke's b parameter  XBeta           ....  0.004200
 Correlation Functional Correlation     .... LYP
 LDA part of GGA corr.  LDAOpt          .... VWN-3
 Gradients option       PostSCFGGA      .... off
 Hybrid DFT is turned on
   Fraction HF Exchange ScalHFX         ....  0.200000
   Scaling of DF-GGA-X  ScalDFX         ....  0.720000
   Scaling of DF-GGA-C  ScalDFC         ....  0.810000
   Scaling of DF-LDA-C  ScalLDAC        ....  1.000000
   Perturbative correction              ....  0.000000
   NL short-range parameter             ....  4.800000


General Settings:
 Integral files         IntName         .... ram
 Hartree-Fock type      HFTyp           .... RHF
 Total Charge           Charge          ....    0
 Multiplicity           Mult            ....    1
 Number of Electrons    NEL             ....   10
 Basis Dimension        Dim             ....   34
 Nuclear Repulsion      ENuc            ....     13.4102402080 Eh

Convergence Acceleration:
 DIIS                   CNVDIIS         .... on
   Start iteration      DIISMaxIt       ....    12
   Startup error        DIISStart       ....  0.200000
   # of expansion vecs  DIISMaxEq       ....     5
   Bias factor          DIISBfac        ....   1.050
   Max. coefficient     DIISMaxC        ....  10.000
 Newton-Raphson         CNVNR           .... off
 SOSCF                  CNVSOSCF        .... on
   Start iteration      SOSCFMaxIt      ....   150
   Startup grad/error   SOSCFStart      ....  0.003300
 Level Shifting         CNVShift        .... on
   Level shift para.    LevelShift      ....    0.2500
   Turn off err/grad.   ShiftErr        ....    0.0010
 Zerner damping         CNVZerner       .... off
 Static damping         CNVDamp         .... on
   Fraction old density DampFac         ....    0.7000
   Max. Damping (<1)    DampMax         ....    0.9800
   Min. Damping (>=0)   DampMin         ....    0.0000
   Turn off err/grad.   DampErr         ....    0.1000
 Fernandez-Rico         CNVRico         .... off

SCF Procedure:
 Maximum # iterations   MaxIter         ....   125
 SCF integral mode      SCFMode         .... Direct
   Integral package                     .... LIBINT
 Reset frequeny         DirectResetFreq ....    20
 Integral Threshold     Thresh          ....  2.500e-11 Eh
 Primitive CutOff       TCut            ....  2.500e-12 Eh

Convergence Tolerance:
 Convergence Check Mode ConvCheckMode   .... Total+1el-Energy
 Convergence forced     ConvForced      .... 0
 Energy Change          TolE            ....  1.000e-08 Eh
 1-El. energy change                    ....  1.000e-05 Eh
 Orbital Gradient       TolG            ....  1.000e-05
 Orbital Rotation angle TolX            ....  1.000e-05
 DIIS Error             TolErr          ....  5.000e-07


Diagonalization of the overlap matrix:
Smallest eigenvalue                        ... 1.974e-02
Time for diagonalization                   ...    0.000 sec
Threshold for overlap eigenvalues          ... 1.000e-08
Number of eigenvalues below threshold      ... 0
Time for construction of square roots      ...    0.000 sec
Total time needed                          ...    0.001 sec

-------------------
DFT GRID GENERATION
-------------------

General Integration Accuracy     IntAcc      ...  4.340
Radial Grid Type                 RadialGrid  ... Gauss-Chebyshev
Angular Grid (max. acc.)         AngularGrid ... Lebedev-110
Angular grid pruning method      GridPruning ... 3 (G Style)
Weight generation scheme         WeightScheme... Becke
Basis function cutoff            BFCut       ...    1.0000e-11
Integration weight cutoff        WCut        ...    1.0000e-14
Grids for H and He will be reduced by one unit

# of grid points (after initial pruning)     ...   4832 (   0.0 sec)
# of grid points (after weights+screening)   ...   4726 (   0.0 sec)
nearest neighbour list constructed           ...    0.0 sec
Grid point re-assignment to atoms done       ...    0.0 sec
Grid point division into batches done        ...    0.0 sec
Reduced shell lists constructed in    0.0 sec

Total number of grid points                  ...     4726
Total number of batches                      ...       77
Average number of points per batch           ...       61
Average number of grid points per atom       ...      945
Average number of shells per batch           ...    16.50 (91.67%)
Average number of basis functions per batch  ...    30.78 (90.54%)
Average number of large shells per batch     ...    15.68 (95.03%)
Average number of large basis fcns per batch ...    29.22 (94.92%)
Maximum spatial batch extension              ...  20.92, 25.60, 18.49 au
Average spatial batch extension              ...   5.28,  5.04,  4.80 au

Time for grid setup =    0.028 sec

------------------------------
INITIAL GUESS: MODEL POTENTIAL
------------------------------
Loading Hartree-Fock densities                     ... done
Calculating cut-offs                               ... done
Setting up the integral package                    ... done
Initializing the effective Hamiltonian             ... done
Starting the Coulomb interaction                   ... done (   0.0 sec)
Reading the grid                                   ... done
Mapping shells                                     ... done
Starting the XC term evaluation                    ... done (   0.0 sec)
  promolecular density results
     # of electrons  =      9.998129262
     EX              =     -6.306053465
     EC              =     -0.288455185
     EX+EC           =     -6.594508650
Transforming the Hamiltonian                       ... done (   0.0 sec)
Diagonalizing the Hamiltonian                      ... done (   0.0 sec)
Back transforming the eigenvectors                 ... done (   0.0 sec)
Now organizing SCF variables                       ... done
                      ------------------
                      INITIAL GUESS DONE (   0.2 sec)
                      ------------------
--------------
SCF ITERATIONS
--------------
ITER       Energy         Delta-E        Max-DP      RMS-DP      [F,P]     Damp
               ***  Starting incremental Fock matrix formation  ***
  0    -40.4448733141   0.000000000000 0.06709282  0.00485586  0.2046911 0.7000
  1    -40.4816444177  -0.036771103540 0.04523736  0.00360377  0.1057911 0.7000
                               ***Turning on DIIS***
  2    -40.4965535909  -0.014909173213 0.06922191  0.00604168  0.0392739 0.0000
  3    -40.5161832062  -0.019629615332 0.02912968  0.00226475  0.0586102 0.0000
  4    -40.5225995334  -0.006416327207 0.00734431  0.00074338  0.0149662 0.0000
  5    -40.5230446149  -0.000445081444 0.00249406  0.00024589  0.0036399 0.0000
                      *** Initiating the SOSCF procedure ***
                           *** Shutting down DIIS ***
                      *** Re-Reading the Fockian *** 
                      *** Removing any level shift *** 
ITER      Energy       Delta-E        Grad      Rot      Max-DP    RMS-DP
  6    -40.52307466  -0.0000300430  0.000340  0.000340  0.001199  0.000117
               *** Restarting incremental Fock matrix formation ***
  7    -40.52307685  -0.0000021941  0.000038  0.000047  0.000101  0.000007
  8    -40.52307685   0.0000000010  0.000034  0.000027  0.000053  0.000004
                  ***Gradient check signals convergence***
              ***Rediagonalizing the Fockian in SOSCF/NRSCF***

               *****************************************************
               *                     SUCCESS                       *
               *           SCF CONVERGED AFTER   9 CYCLES          *
               *****************************************************

Setting up the final grid:

General Integration Accuracy     IntAcc      ...  4.670
Radial Grid Type                 RadialGrid  ... Gauss-Chebyshev
Angular Grid (max. acc.)         AngularGrid ... Lebedev-302
Angular grid pruning method      GridPruning ... 3 (G Style)
Weight generation scheme         WeightScheme... Becke
Basis function cutoff            BFCut       ...    1.0000e-11
Integration weight cutoff        WCut        ...    1.0000e-14
Grids for H and He will be reduced by one unit

# of grid points (after initial pruning)     ...  19788 (   0.0 sec)
# of grid points (after weights+screening)   ...  19295 (   0.0 sec)
nearest neighbour list constructed           ...    0.0 sec
Grid point re-assignment to atoms done       ...    0.0 sec
Grid point division into batches done        ...    0.1 sec
Reduced shell lists constructed in    0.2 sec

Total number of grid points                  ...    19295
Total number of batches                      ...      303
Average number of points per batch           ...       63
Average number of grid points per atom       ...     3859
Average number of shells per batch           ...    15.34 (85.22%)
Average number of basis functions per batch  ...    28.62 (84.18%)
Average number of large shells per batch     ...    14.24 (92.86%)
Average number of large basis fcns per batch ...    26.41 (92.27%)
Maximum spatial batch extension              ...  20.64, 20.64, 20.64 au
Average spatial batch extension              ...   3.43,  3.13,  3.21 au

Final grid set up in    0.2 sec
Final integration                            ... done (   0.1 sec)
Change in XC energy                          ...    -0.000137028
Integrated number of electrons               ...     9.999996784
Previous integrated no of electrons          ...     9.999953234

----------------
TOTAL SCF ENERGY
----------------

Total Energy       :          -40.52321389 Eh           -1102.69271 eV

Components:
Nuclear Repulsion  :           13.41024021 Eh             364.91119 eV
Electronic Energy  :          -53.93345410 Eh           -1467.60390 eV
One Electron Energy:          -79.80403714 Eh           -2171.57825 eV
Two Electron Energy:           25.87058304 Eh             703.97435 eV

Virial components:
Potential Energy   :          -80.70715409 Eh           -2196.15331 eV
Kinetic Energy     :           40.18394020 Eh            1093.46060 eV
Virial Ratio       :            2.00844302


DFT components:
N(Alpha)           :        4.999998391820 electrons
N(Beta)            :        4.999998391820 electrons
N(Total)           :        9.999996783641 electrons
E(X)               :       -5.209097999490 Eh       
E(C)               :       -0.387434140627 Eh       
E(XC)              :       -5.596532140117 Eh       

---------------
SCF CONVERGENCE
---------------

  Last Energy change         ...   -1.1845e-08  Tolerance :   1.0000e-08
  Last MAX-Density change    ...    1.0233e-06  Tolerance :   1.0000e-07
  Last RMS-Density change    ...    1.0654e-07  Tolerance :   5.0000e-09
  Last Orbital Gradient      ...    2.7990e-07  Tolerance :   1.0000e-05
  Last Orbital Rotation      ...    4.6258e-07  Tolerance :   1.0000e-05

             **** THE GBW FILE WAS UPDATED (ram.gbw) ****
             **** DENSITY FILE WAS UPDATED (ram.scfp.tmp) ****
             **** ENERGY FILE WAS UPDATED (ram.en.tmp) ****
----------------
ORBITAL ENERGIES
----------------

  NO   OCC          E(Eh)            E(eV) 
   0   2.0000     -10.162787      -276.5435 
   1   2.0000      -0.690293       -18.7838 
   2   2.0000      -0.388496       -10.5715 
   3   2.0000      -0.388359       -10.5678 
   4   2.0000      -0.388203       -10.5636 
   5   0.0000       0.118380         3.2213 
   6   0.0000       0.175870         4.7857 
   7   0.0000       0.176459         4.8017 
   8   0.0000       0.178157         4.8479 
   9   0.0000       0.527220        14.3464 
  10   0.0000       0.528962        14.3938 
  11   0.0000       0.531565        14.4646 
  12   0.0000       0.873498        23.7691 
  13   0.0000       0.873859        23.7789 
  14   0.0000       0.875771        23.8309 
  15   0.0000       0.923104        25.1189 
  16   0.0000       1.109552        30.1925 
  17   0.0000       1.363100        37.0918 
  18   0.0000       1.363320        37.0978 
  19   0.0000       2.048015        55.7293 
  20   0.0000       2.048092        55.7314 
  21   0.0000       2.048326        55.7378 
  22   0.0000       2.050920        55.8084 
  23   0.0000       2.051378        55.8208 
  24   0.0000       2.052123        55.8411 
  25   0.0000       2.629007        71.5389 
  26   0.0000       2.629515        71.5527 
  27   0.0000       2.630775        71.5870 
  28   0.0000       2.910895        79.2095 
  29   0.0000       2.910974        79.2116 
  30   0.0000       3.116871        84.8144 
  31   0.0000       3.419819        93.0580 
  32   0.0000       3.420016        93.0634 
  33   0.0000       3.421051        93.0915 
------------------
MOLECULAR ORBITALS
------------------
                      0         1         2         3         4         5   
                 -10.16279  -0.69029  -0.38850  -0.38836  -0.38820   0.11838
                   2.00000   2.00000   2.00000   2.00000   2.00000   0.00000
                  --------  --------  --------  --------  --------  --------
  0C   1s        -0.995004 -0.197113 -0.000005  0.000013  0.000005  0.159012
  0C   2s        -0.037455  0.374872  0.000967 -0.000700 -0.000024 -0.177556
  0C   1pz       -0.000001  0.000003 -0.048012 -0.439143 -0.032367  0.001769
  0C   1px       -0.000004 -0.000424 -0.440356  0.048652 -0.006270  0.004566
  0C   1py        0.000000  0.000035 -0.009796 -0.031498  0.441279 -0.000603
  0C   3s         0.025706  0.329592 -0.001579  0.001555  0.000078 -2.579996
  0C   2pz        0.000003 -0.000223 -0.021920 -0.198717 -0.014682  0.011807
  0C   2px       -0.000003  0.001146 -0.198390  0.021364 -0.002881  0.032691
  0C   2py        0.000000 -0.000065 -0.004345 -0.014206  0.199338 -0.003884
  0C   1dz2       0.000002 -0.000060  0.009577 -0.017151 -0.002013  0.000070
  0C   1dxz       0.000001  0.000035  0.001385  0.013164  0.000967  0.000003
  0C   1dyz      -0.000000  0.000002  0.000538  0.002458 -0.018512  0.000012
  0C   1dx2y2    -0.000002  0.000085 -0.020557 -0.007091 -0.001544  0.000066
  0C   1dxy      -0.000000  0.000002  0.000287  0.000947 -0.013200 -0.000001
  1H   1s         0.001175  0.136990 -0.292914  0.032246 -0.004176  0.016341
  1H   2s        -0.004567  0.047622 -0.259915  0.028985 -0.003724  0.944908
  1H   1pz       -0.000000  0.000029 -0.000934 -0.008431 -0.000623  0.000004
  1H   1px       -0.001455 -0.011822  0.007209 -0.000806  0.000102  0.003254
  1H   1py        0.000000  0.000002 -0.000190 -0.000605  0.008488 -0.000002
  2H   1s         0.001173  0.137070  0.107055  0.104513  0.253756  0.020165
  2H   2s        -0.004569  0.048506  0.094706  0.092377  0.226247  1.009620
  2H   1pz        0.000660  0.005396  0.001682 -0.005885  0.005523 -0.001212
  2H   1px        0.000485  0.003923 -0.006516  0.002795  0.004409 -0.000938
  2H   1py       -0.001199 -0.009809 -0.004902 -0.005159 -0.002751  0.002241
  3H   1s         0.001176  0.137308  0.068020 -0.285897 -0.024595  0.018375
  3H   2s        -0.004575  0.048327  0.060275 -0.253809 -0.021927  0.985545
  3H   1pz       -0.001368 -0.011228 -0.004350  0.005968  0.000619  0.002767
  3H   1px        0.000484  0.003906 -0.007198 -0.004100 -0.000556 -0.000974
  3H   1py        0.000028  0.000237 -0.000116 -0.000905  0.008481 -0.000057
  4H   1s         0.001174  0.137082  0.118780  0.148571 -0.224971  0.019722
  4H   2s        -0.004569  0.048405  0.105187  0.131532 -0.200705  1.002235
  4H   1pz        0.000709  0.005797  0.002182 -0.004558 -0.006479 -0.001337
  4H   1px        0.000485  0.003922 -0.006306  0.003580 -0.004138 -0.000959
  4H   1py        0.001171  0.009579  0.004922  0.005744 -0.001252 -0.002239
                      6         7         8         9        10        11   
                   0.17587   0.17646   0.17816   0.52722   0.52896   0.53157
                   0.00000   0.00000   0.00000   0.00000   0.00000   0.00000
                  --------  --------  --------  --------  --------  --------
  0C   1s         0.001781  0.000300 -0.002869 -0.000093 -0.000133  0.000664
  0C   2s        -0.002705 -0.000405  0.004530 -0.000098  0.002862  0.006891
  0C   1pz       -0.369481  0.043173 -0.073149 -0.082322 -0.742309 -0.013129
  0C   1px       -0.072539 -0.006052  0.377564 -0.018147 -0.013998  0.743017
  0C   1py        0.041297  0.379269  0.014410  0.740848 -0.082234  0.016162
  0C   3s        -0.027758 -0.004463  0.040951  0.001484 -0.003360 -0.022055
  0C   2pz       -1.315958  0.153025 -0.252256  0.159513  1.440435  0.027953
  0C   2px       -0.258956 -0.021410  1.312288  0.034763  0.024172 -1.450966
  0C   2py        0.145859  1.334571  0.049923 -1.442552  0.160336 -0.031904
  0C   1dz2       0.011795 -0.000894  0.013005 -0.008197 -0.052096 -0.039955
  0C   1dxz      -0.011212  0.001318 -0.002223  0.004734  0.043196  0.001156
  0C   1dyz       0.000769  0.016307  0.000433 -0.060460  0.010630 -0.001318
  0C   1dx2y2     0.011164 -0.000147 -0.016092 -0.006730 -0.031083  0.066117
  0C   1dxy       0.001233  0.011479  0.000445 -0.043310  0.004860 -0.001020
  1H   1s         0.024752  0.002132 -0.124768 -0.011898 -0.007202  0.498097
  1H   2s         0.367898  0.031319 -1.836865 -0.006277 -0.003382  0.253799
  1H   1pz       -0.011132  0.001305 -0.002233  0.002181  0.020024  0.000512
  1H   1px        0.000767  0.000074 -0.004363  0.001043  0.000833 -0.042742
  1H   1py        0.001247  0.011491  0.000442 -0.019940  0.002252 -0.000474
  2H   1s        -0.074908 -0.096775  0.025699  0.434819  0.180249 -0.148707
  2H   2s        -1.101577 -1.439010  0.374173  0.218365  0.090030 -0.072187
  2H   1pz       -0.007126  0.006581 -0.003675  0.011468  0.023753 -0.002686
  2H   1px        0.000712  0.003716  0.010501  0.007344  0.003200 -0.022984
  2H   1py       -0.005890  0.001752  0.003045 -0.036550 -0.005138  0.005335
  3H   1s         0.108586 -0.011654  0.062469 -0.057038 -0.458723 -0.172987
  3H   2s         1.609513 -0.171744  0.923489 -0.028760 -0.228712 -0.083179
  3H   1pz        0.000884  0.000009  0.005212  0.004674  0.039973  0.007587
  3H   1px       -0.006389  0.000271  0.008892 -0.000447 -0.007010 -0.023014
  3H   1py        0.000995  0.011542  0.000288 -0.019866  0.001839 -0.000603
  4H   1s        -0.056906  0.106733  0.032576 -0.366802  0.286121 -0.166353
  4H   2s        -0.833154  1.586229  0.475593 -0.184765  0.143220 -0.081035
  4H   1pz       -0.007884 -0.004966 -0.004207 -0.006194  0.026471 -0.003279
  4H   1px       -0.000006 -0.004485  0.010210 -0.005294  0.004847 -0.023237
  4H   1py        0.006473  0.001023 -0.002806 -0.033404  0.013333 -0.006711
                     12        13        14        15        16        17   
                   0.87350   0.87386   0.87577   0.92310   1.10955   1.36310
                   0.00000   0.00000   0.00000   0.00000   0.00000   0.00000
                  --------  --------  --------  --------  --------  --------
  0C   1s         0.001255 -0.000037  0.001186  0.088294  0.079741  0.000013
  0C   2s        -0.005536  0.000336 -0.005949 -0.855739  2.162675  0.000365
  0C   1pz        0.714512 -0.178679 -0.213083 -0.006215 -0.000465  0.000017
  0C   1px        0.212736 -0.021776  0.737661 -0.010701 -0.004321 -0.000064
  0C   1py       -0.177558 -0.745754  0.029428  0.001467  0.000467 -0.000088
  0C   3s         0.003742 -0.000496  0.005051  1.477232 -5.300352 -0.000842
  0C   2pz       -1.220319  0.305343  0.365298  0.010876 -0.000480 -0.000013
  0C   2px       -0.363863  0.037307 -1.265911  0.021217  0.009405  0.000033
  0C   2py        0.303503  1.275390 -0.050487 -0.002756 -0.000894  0.000108
  0C   1dz2      -0.130842  0.026637  0.166871 -0.000067  0.000307  0.045088
  0C   1dxz       0.133198 -0.033281 -0.039378 -0.001286 -0.000862  0.040006
  0C   1dyz      -0.034986 -0.198456  0.004247  0.000245 -0.000027  0.382481
  0C   1dx2y2    -0.154970  0.023495 -0.176649  0.003208 -0.000930  0.026007
  0C   1dxy      -0.033114 -0.138901  0.005424  0.000247  0.000042 -0.544240
  1H   1s        -0.228914  0.023931 -0.807352  0.618091  0.338199  0.000136
  1H   2s         0.497665 -0.051152  1.734327 -0.649929  0.989308  0.000104
  1H   1pz        0.047562 -0.011873 -0.013971 -0.000399 -0.000541  0.018022
  1H   1px       -0.028929  0.003019 -0.101965  0.078250 -0.024843  0.000012
  1H   1py       -0.011795 -0.049453  0.001923  0.000066  0.000001 -0.244907
  2H   1s         0.608460  0.583373  0.144572  0.600594  0.336443 -0.000189
  2H   2s        -1.280733 -1.241285 -0.298045 -0.605378  0.997544  0.000183
  2H   1pz       -0.003644 -0.061372 -0.026074 -0.034722  0.011590  0.125727
  2H   1px       -0.023543 -0.037776  0.039716 -0.025538  0.009296 -0.210460
  2H   1py        0.081569  0.040405  0.023811  0.062556 -0.021119 -0.015842
  3H   1s        -0.663965  0.162126  0.499932  0.610469  0.338889  0.000032
  3H   2s         1.421893 -0.344863 -1.056985 -0.628200  0.995213  0.000176
  3H   1pz       -0.069842  0.016694  0.073559  0.072789 -0.023963  0.012722
  3H   1px        0.055868 -0.011585  0.017646 -0.026263  0.008834  0.021699
  3H   1py       -0.009377 -0.050057  0.000128 -0.001451  0.000428  0.244771
  4H   1s         0.314120 -0.770446  0.189644  0.602715  0.336822  0.000303
  4H   2s        -0.655083  1.638259 -0.394311 -0.610628  0.996361  0.000103
  4H   1pz        0.019345  0.058250 -0.031058 -0.037452  0.012426 -0.156519
  4H   1px       -0.005215  0.046527  0.036915 -0.025661  0.009243  0.188754
  4H   1py       -0.058686  0.066424 -0.026201 -0.061262  0.020519  0.016635
                     18        19        20        21        22        23   
                   1.36332   2.04802   2.04809   2.04833   2.05092   2.05138
                   0.00000   0.00000   0.00000   0.00000   0.00000   0.00000
                  --------  --------  --------  --------  --------  --------
  0C   1s        -0.000102 -0.000011  0.000024 -0.000004 -0.000022  0.000176
  0C   2s        -0.002303 -0.000110  0.000230 -0.000036 -0.000513  0.003084
  0C   1pz       -0.000256 -0.002928  0.005966 -0.001318  0.005652 -0.036855
  0C   1px        0.000389 -0.000120 -0.001835 -0.000376  0.009946 -0.104161
  0C   1py       -0.000001 -0.013123 -0.007530  0.001711 -0.107931 -0.011111
  0C   3s         0.005556  0.000352 -0.000729  0.000109  0.001256 -0.008025
  0C   2pz        0.000233  0.014778 -0.030445  0.006874 -0.030053  0.194102
  0C   2px       -0.000157  0.000245  0.010465  0.001896 -0.052065  0.543079
  0C   2py       -0.000002  0.068888  0.039441 -0.009259  0.568352  0.058208
  0C   1dz2      -0.331853  0.008645 -0.033331  0.004949 -0.023965 -0.159806
  0C   1dxz      -0.543881 -0.009923  0.020447 -0.004633  0.020640 -0.132644
  0C   1dyz       0.052084 -0.067039 -0.036168  0.008845 -0.545601 -0.067465
  0C   1dx2y2    -0.191203  0.005033 -0.004841  0.005542 -0.084674  0.644369
  0C   1dxy      -0.039972 -0.046878 -0.026786  0.006659 -0.388352 -0.039627
  1H   1s        -0.000848 -0.000044 -0.011264 -0.002067  0.055137 -0.573768
  1H   2s        -0.000695 -0.000216  0.001505  0.000228 -0.006383  0.064410
  1H   1pz       -0.245054 -0.315000  0.543769 -0.042373  0.011775 -0.079915
  1H   1px       -0.000009  0.000003 -0.006546 -0.001181  0.032298 -0.336005
  1H   1py       -0.017988 -0.521633 -0.318005 -0.198915 -0.167128 -0.011395
  2H   1s        -0.000585 -0.053287 -0.045202  0.012348 -0.532496  0.235291
  2H   2s        -0.000756  0.005774  0.004837 -0.001510  0.059646 -0.024858
  2H   1pz        0.179474 -0.057539 -0.216999  0.489139  0.088735 -0.102423
  2H   1px        0.096381  0.269501  0.488370  0.148236 -0.008153 -0.254298
  2H   1py        0.137688  0.039853  0.046215  0.337595 -0.331239  0.006664
  3H   1s        -0.000015 -0.013156  0.034632 -0.006307  0.023594 -0.001789
  3H   2s        -0.001582  0.001239 -0.003328  0.000607 -0.003048  0.002794
  3H   1pz       -0.081225  0.098400 -0.157358 -0.002057  0.016684 -0.084447
  3H   1px       -0.230495  0.282233 -0.512916  0.032804  0.023231 -0.232771
  3H   1py        0.024816  0.315790  0.147778 -0.475669 -0.303084 -0.030475
  4H   1s        -0.000554  0.066428  0.021992 -0.003996  0.453335  0.342986
  4H   2s        -0.000746 -0.007097 -0.002415  0.000585 -0.051057 -0.036752
  4H   1pz        0.147003  0.246073 -0.111237 -0.457970 -0.057662 -0.115738
  4H   1px        0.134022 -0.551957  0.010364 -0.183492  0.054659 -0.238936
  4H   1py       -0.144447  0.031776  0.047221  0.355911 -0.316488 -0.078985
                     24        25        26        27        28        29   
                   2.05212   2.62901   2.62952   2.63077   2.91089   2.91097
                   0.00000   0.00000   0.00000   0.00000   0.00000   0.00000
                  --------  --------  --------  --------  --------  --------
  0C   1s        -0.000160 -0.000050 -0.000006 -0.000015 -0.000048  0.000028
  0C   2s        -0.001427  0.000842  0.000299  0.001500  0.000549 -0.000346
  0C   1pz       -0.103278 -0.161629 -0.026120  0.003111  0.001043 -0.000623
  0C   1px        0.038119  0.001562  0.006370  0.163252 -0.000358  0.000174
  0C   1py       -0.002224  0.026180 -0.161243  0.006034  0.000181  0.000210
  0C   3s         0.004570 -0.000994 -0.000331 -0.001763  0.000186 -0.000071
  0C   2pz        0.542229 -0.651338 -0.105371  0.011547  0.000940 -0.000412
  0C   2px       -0.197899  0.008171  0.025997  0.661905 -0.000101 -0.000022
  0C   2py        0.011478  0.105671 -0.651657  0.024444  0.000646  0.001013
  0C   1dz2       0.566640  0.337448  0.042461  0.232344  0.410425 -0.202788
  0C   1dxz      -0.369552 -0.270365 -0.043679  0.004860  0.646211 -0.370257
  0C   1dyz      -0.043232  0.038300 -0.385026  0.014749  0.233994  0.474090
  0C   1dx2y2     0.059564  0.188215  0.002931 -0.414240  0.236348 -0.116628
  0C   1dxy      -0.007756  0.043961 -0.271851  0.010065 -0.370229 -0.645913
  1H   1s         0.208163  0.000767  0.002258  0.055858  0.000218 -0.000095
  1H   2s        -0.023152 -0.006510 -0.020996 -0.535102  0.000120 -0.000039
  1H   1pz       -0.194611  0.641519  0.103672 -0.011531 -0.439470  0.251720
  1H   1px        0.122301  0.002187  0.007059  0.179692 -0.000322  0.000123
  1H   1py       -0.006374 -0.104144  0.642539 -0.023925  0.251085  0.438062
  2H   1s         0.181828  0.032131 -0.042194 -0.016765  0.000071 -0.000038
  2H   2s        -0.021747 -0.307568  0.403452  0.166244  0.000023 -0.000581
  2H   1pz       -0.261976  0.424206  0.387536  0.105459  0.161079 -0.421862
  2H   1px        0.090826 -0.167252  0.184273 -0.563873  0.407422  0.248199
  2H   1py        0.021459  0.291468  0.124135 -0.236827  0.253059 -0.131660
  3H   1s        -0.612605 -0.052543 -0.007997 -0.017299 -0.000647  0.000382
  3H   2s         0.067463  0.500636  0.077106  0.170042 -0.001256  0.000659
  3H   1pz       -0.349373 -0.090878 -0.009093 -0.259323 -0.151571  0.070757
  3H   1px        0.086039  0.251266  0.014315 -0.562306 -0.419925  0.229358
  3H   1py        0.001874 -0.088955  0.642613 -0.018982 -0.240551 -0.447624
  4H   1s         0.220985  0.019325  0.048123 -0.020149  0.000100 -0.000104
  4H   2s        -0.026068 -0.185820 -0.459489  0.198860  0.000652  0.000203
  4H   1pz       -0.259685  0.500207 -0.243738  0.138741  0.431377  0.098054
  4H   1px        0.087260 -0.104011 -0.264422 -0.547052  0.011670 -0.476788
  4H   1py       -0.039354 -0.337819  0.065810  0.224634 -0.265533  0.137732
                     30        31        32        33   
                   3.11687   3.41982   3.42002   3.42105
                   0.00000   0.00000   0.00000   0.00000
                  --------  --------  --------  --------
  0C   1s         0.121984 -0.000051 -0.000079  0.000189
  0C   2s        -0.839012  0.000480  0.000477 -0.003039
  0C   1pz        0.001201  0.147848  0.434975 -0.794222
  0C   1px        0.000838  0.237323  0.756130  0.459063
  0C   1py       -0.000218 -0.872738  0.279618 -0.009328
  0C   3s        -1.128130  0.000296  0.000245 -0.002228
  0C   2pz        0.000574  0.086312  0.254175 -0.464913
  0C   2px        0.000137  0.139572  0.444899  0.270434
  0C   2py       -0.000124 -0.511593  0.164006 -0.005492
  0C   1dz2       0.002711  0.030515 -0.107949 -1.015767
  0C   1dxz      -0.000886 -0.110032 -0.324019  0.592237
  0C   1dyz      -0.000044  0.905973 -0.321611  0.061224
  0C   1dx2y2    -0.000053  0.370874  1.063167  0.096523
  0C   1dxy       0.000092  0.650093 -0.208283  0.007072
  1H   1s         0.269522 -0.212544 -0.676990 -0.410152
  1H   2s         0.321708 -0.143236 -0.456224 -0.276466
  1H   1pz        0.000078  0.002667  0.007981 -0.014750
  1H   1px       -0.662134  0.315893  1.005828  0.608684
  1H   1py       -0.000009 -0.015614  0.005100 -0.000174
  2H   1s         0.270214  0.776228  0.195890 -0.178274
  2H   2s         0.321764  0.521587  0.131424 -0.119219
  2H   1pz        0.301769  0.519348  0.137752 -0.131674
  2H   1px        0.220903  0.383834  0.109039 -0.078835
  2H   1py       -0.547421 -0.954472 -0.231844  0.215644
  3H   1s         0.268517 -0.069198 -0.136515  0.808422
  3H   2s         0.320759 -0.046225 -0.090923  0.542514
  3H   1pz       -0.622097  0.098216  0.196242 -1.128747
  3H   1px        0.219669 -0.029644 -0.053192  0.402491
  3H   1py        0.012848 -0.016750  0.000870  0.022799
  4H   1s         0.270039 -0.494797  0.617691 -0.215860
  4H   2s         0.321646 -0.332672  0.414974 -0.144446
  4H   1pz        0.323918 -0.351432  0.449088 -0.167400
  4H   1px        0.220823 -0.237908  0.315370 -0.097105
  4H   1py        0.534266 -0.600037  0.734338 -0.255271



                    ********************************
                    * MULLIKEN POPULATION ANALYSIS *
                    ********************************

-----------------------
MULLIKEN ATOMIC CHARGES
-----------------------
   0 C :   -0.458579
   1 H :    0.115806
   2 H :    0.114228
   3 H :    0.114149
   4 H :    0.114396
Sum of atomic charges:    0.0000000

--------------------------------
MULLIKEN REDUCED ORBITAL CHARGES
--------------------------------
  0 C s       :     3.269243  s :     3.269243
      pz      :     1.055870  p :     3.164249
      px      :     1.054469
      py      :     1.053910
      dz2     :     0.006258  d :     0.025087
      dxz     :     0.002810
      dyz     :     0.005582
      dx2y2   :     0.007635
      dxy     :     0.002802
  1 H s       :     0.872866  s :     0.872866
      pz      :     0.002360  p :     0.011328
      px      :     0.006607
      py      :     0.002361
  2 H s       :     0.874451  s :     0.874451
      pz      :     0.003236  p :     0.011320
      px      :     0.002823
      py      :     0.005262
  3 H s       :     0.874499  s :     0.874499
      pz      :     0.006170  p :     0.011351
      px      :     0.002809
      py      :     0.002372
  4 H s       :     0.874282  s :     0.874282
      pz      :     0.003374  p :     0.011322
      px      :     0.002822
      py      :     0.005126


                     *******************************
                     * LOEWDIN POPULATION ANALYSIS *
                     *******************************

----------------------
LOEWDIN ATOMIC CHARGES
----------------------
   0 C :   -0.298175
   1 H :    0.074684
   2 H :    0.074476
   3 H :    0.074506
   4 H :    0.074509

-------------------------------
LOEWDIN REDUCED ORBITAL CHARGES
-------------------------------
  0 C s       :     2.936330  s :     2.936330
      pz      :     1.105885  p :     3.316091
      px      :     1.105205
      py      :     1.105002
      dz2     :     0.011427  d :     0.045754
      dxz     :     0.005104
      dyz     :     0.010172
      dx2y2   :     0.013949
      dxy     :     0.005103
  1 H s       :     0.886755  s :     0.886755
      pz      :     0.006754  p :     0.038562
      px      :     0.025064
      py      :     0.006744
  2 H s       :     0.886962  s :     0.886962
      pz      :     0.010523  p :     0.038562
      px      :     0.008780
      py      :     0.019260
  3 H s       :     0.886845  s :     0.886845
      pz      :     0.023071  p :     0.038648
      px      :     0.008798
      py      :     0.006780
  4 H s       :     0.886922  s :     0.886922
      pz      :     0.011107  p :     0.038569
      px      :     0.008781
      py      :     0.018682


                      *****************************
                      * MAYER POPULATION ANALYSIS *
                      *****************************

  NA   - Mulliken gross atomic population
  ZA   - Total nuclear charge
  QA   - Mulliken gross atomic charge
  VA   - Mayer's total valence
  BVA  - Mayer's bonded valence
  FA   - Mayer's free valence

  ATOM       NA         ZA         QA         VA         BVA        FA
  0 C      6.4586     6.0000    -0.4586     3.9165     3.9165    -0.0000
  1 H      0.8842     1.0000     0.1158     0.9572     0.9572    -0.0000
  2 H      0.8858     1.0000     0.1142     0.9578     0.9578     0.0000
  3 H      0.8859     1.0000     0.1141     0.9578     0.9578    -0.0000
  4 H      0.8856     1.0000     0.1144     0.9578     0.9578    -0.0000

  Mayer bond orders larger than 0.1
B(  0-C ,  1-H ) :   0.9786 B(  0-C ,  2-H ) :   0.9794 B(  0-C ,  3-H ) :   0.9792 
B(  0-C ,  4-H ) :   0.9793 

-------
TIMINGS
-------

Total SCF time: 0 days 0 hours 0 min 2 sec 

Total time                  ....       2.124 sec
Sum of individual times     ....       2.115 sec  ( 99.6%)

Fock matrix formation       ....       1.773 sec  ( 83.5%)
  XC integration            ....       0.440 sec  ( 24.8% of F)
    Basis function eval.    ....       0.239 sec  ( 54.2% of XC)
    Density eval.           ....       0.049 sec  ( 11.2% of XC)
    XC-Functional eval.     ....       0.075 sec  ( 17.0% of XC)
    XC-Potential eval.      ....       0.056 sec  ( 12.8% of XC)
Diagonalization             ....       0.003 sec  (  0.1%)
Density matrix formation    ....       0.000 sec  (  0.0%)
Population analysis         ....       0.001 sec  (  0.0%)
Initial guess               ....       0.125 sec  (  5.9%)
Orbital Transformation      ....       0.000 sec  (  0.0%)
Orbital Orthonormalization  ....       0.000 sec  (  0.0%)
DIIS solution               ....       0.001 sec  (  0.0%)
SOSCF solution              ....       0.017 sec  (  0.8%)
Grid generation             ....       0.195 sec  (  9.2%)

-------------------------   --------------------
FINAL SINGLE POINT ENERGY       -40.523213890542
-------------------------   --------------------

------------------------------------------------------------------------------
                         ORCA SCF GRADIENT CALCULATION
------------------------------------------------------------------------------

Gradient of the Kohn-Sham DFT energy:
Kohn-Sham wavefunction type      ... RKS
Hartree-Fock exchange scaling    ...    0.200
Number of operators              ...    1
Number of atoms                  ...    5
Basis set dimensions             ...   34
Integral neglect threshold       ... 2.5e-11
Integral primitive cutoff        ... 2.5e-12

Nuclear repulsion gradient       ... done
One Electron Gradient            ... done
Pre-screening matrix             ... done
Starting the two electron gradient:
Two electron gradient done
Exchange-correlation gradient    ... done

------------------
CARTESIAN GRADIENT
------------------

   1   C   :   -0.000001084    0.000000104   -0.000000160
   2   H   :    0.000000397    0.000001413   -0.000007023
   3   H   :   -0.000004132    0.000000527    0.000003824
   4   H   :    0.000006829   -0.000002167    0.000002354
   5   H   :   -0.000002010    0.000000124    0.000001005

Difference to translation invariance:
           :    0.0000000000   -0.0000000000   -0.0000000000

Norm of the cartesian gradient     ...    0.0000121074
RMS gradient                       ...    0.0000031261
MAX gradient                       ...    0.0000070227

-------
TIMINGS
-------

Total SCF gradient time            ...        0.511 sec

One electron gradient       ....       0.003 sec  (  0.6%)
Prescreening matrices       ....       0.005 sec  (  0.9%)
Two electron gradient       ....       0.062 sec  ( 12.1%)
XC gradient                 ....       0.335 sec  ( 65.5%)

                            ***************************************
                            *     ORCA property calculations      *
                            ***************************************

                                    ---------------------
                                    Active property flags
                                    ---------------------
   (+) Dipole Moment
   (+) Polarizability


------------------------------------------------------------------------------
                       ORCA ELECTRIC PROPERTIES CALCULATION
------------------------------------------------------------------------------

Dipole Moment Calculation                       ... on
Quadrupole Moment Calculation                   ... off
Polarizability Calculation                      ... Analytic (CP-SCF)
GBWName                                         ... ram.gbw
Electron density file                           ... ram.scfp.tmp
The origin for moment calculation is the CENTER OF MASS  = (-3.706985,  2.970647  0.000090)

-------------
DIPOLE MOMENT
-------------
                                X             Y             Z
Electronic contribution:     -0.00085      -0.00014       0.00130
Nuclear contribution   :     -0.00097       0.00014      -0.00025
                        -----------------------------------------
Total Dipole Moment    :     -0.00182      -0.00000       0.00105
                        -----------------------------------------
Magnitude (a.u.)       :      0.00210
Magnitude (Debye)      :      0.00534

Transforming and storing MO dipole integrals   ... done

                ... starting polarizability calculation

Opening the Dipole integral file               ... (ram.dmo.tmp) done
Reading Dipole-MO integrals                    ... done
Solving CP-SCF equations                       ... 
------------------------------------------------------------------------------
                           ORCA CP-SCF CALCULATION
------------------------------------------------------------------------------

Input orbitals are from        ... ram.gbw
Input Perturbation             ... ram.cpv.tmp
Wavefunction output            ... ram.cpu.tmp
Perturbation mode              ... Real perturbation
Solver                         ... POPLE
Max. number of iterations      ... 64
Convergence tolerance          ... 1.000e-06
Integral handling              ... Direct
Number of perturbations        ... 3
Number of operators            ... 1
Orbital ranges used for CP-SCF:
 Operator 0:  Orbitals   0...  4  to   5... 33
DFT calculation                         ... on
Exchange functional (SCF)               ... B88
Exchange functional (CP-SCF)            ... B88
   X-Alpha parameter    XAlpha (SCF)    ...  0.666667
   X-Alpha parameter    XAlpha (CP-SCF) ...  0.666667
   Becke's b parameter  XBeta (SCF)     ...  0.004200
   Becke's b parameter  XBeta (CP-SCF)  ...  0.004200
Correlation functional (SCF)            ... LYP
Correlation functional (CP-SCF)         ... LYP
 LDA part of GGA corr.  LDAOpt (SCF)    ... VWN-3
 LDA part of GGA corr.  LDAOpt (CP-SCF) ... VWN-3
Hybrid DFT                              ... on
   Exchange mixing (SCF)                ...  0.200
   Exchange mixing (CP-SCF)             ...  0.200
   GGA exch. scaling(SCF)               ...  0.720
   GGA exch. scaling (CP-SCF)           ...  0.720
   GGA corr. scaling (SCF)              ...  0.810
   GGA corr. scaling (CP-SCF)           ...  0.810
Variables per vector in CP-SCF ... 145
Number of vectors sought       ... 3
Recalculating density on grid  ... done
Calculating the xc-kernel      ... done
     CP-SCF ITERATION   0: 
     CP-SCF ITERATION   1:      0.000965889422
     CP-SCF ITERATION   2:      0.000007862028
     CP-SCF ITERATION   3:      0.000000302409
done
Reading CP-SCF coefficients                    ... done
Doing the polarizability tensor   ... done
Cleaning up                                    ... done

-------------------------
THE POLARIZABILITY TENSOR
-------------------------

The raw cartesian tensor (atomic units):
   12.63841     -0.00180      0.00050  
   -0.00180     12.71201     -0.00262  
    0.00050     -0.00262     12.67991  
diagonalized tensor: 
   12.63836     12.67970     12.71227  

    0.99965      0.00864      0.02490  
    0.02411      0.08131     -0.99640  
   -0.01063      0.99665      0.08108  

Isotropic polarizability :  12.67678


----------------------------------------------------------------------------
                           ORCA NUMERICAL FREQUENCIES
----------------------------------------------------------------------------

Number of atoms                ... 5
Central differences            ... used
Number of displacements        ... 30
Numerical increment            ...  0.005 bohr
IR-spectrum generation         ... on
Raman-spectrum generation      ... on
Polarizability calculation     ... 1
Surface Crossing Hessian       ... off

The output will be reduced. Please look at the following files:
SCF program output             ... >ram.lastscf
Integral program output        ... >ram.lastint
Gradient program output        ... >ram.lastgrad
Dipole moment program output   ... >ram.lastmom


         <<<Energy and Gradient at the input geometry>>>
             <<<Displacing   1/coordinate 1 (+)>>>
             <<<Displacing   1/coordinate 1 (-)>>>
             <<<Displacing   1/coordinate 2 (+)>>>
             <<<Displacing   1/coordinate 2 (-)>>>
             <<<Displacing   1/coordinate 3 (+)>>>
             <<<Displacing   1/coordinate 3 (-)>>>
             <<<Displacing   2/coordinate 1 (+)>>>
             <<<Displacing   2/coordinate 1 (-)>>>
             <<<Displacing   2/coordinate 2 (+)>>>
             <<<Displacing   2/coordinate 2 (-)>>>
             <<<Displacing   2/coordinate 3 (+)>>>
             <<<Displacing   2/coordinate 3 (-)>>>
             <<<Displacing   3/coordinate 1 (+)>>>
             <<<Displacing   3/coordinate 1 (-)>>>
             <<<Displacing   3/coordinate 2 (+)>>>
             <<<Displacing   3/coordinate 2 (-)>>>
             <<<Displacing   3/coordinate 3 (+)>>>
             <<<Displacing   3/coordinate 3 (-)>>>
             <<<Displacing   4/coordinate 1 (+)>>>
             <<<Displacing   4/coordinate 1 (-)>>>
             <<<Displacing   4/coordinate 2 (+)>>>
             <<<Displacing   4/coordinate 2 (-)>>>
             <<<Displacing   4/coordinate 3 (+)>>>
             <<<Displacing   4/coordinate 3 (-)>>>
             <<<Displacing   5/coordinate 1 (+)>>>
             <<<Displacing   5/coordinate 1 (-)>>>
             <<<Displacing   5/coordinate 2 (+)>>>
             <<<Displacing   5/coordinate 2 (-)>>>
             <<<Displacing   5/coordinate 3 (+)>>>
             <<<Displacing   5/coordinate 3 (-)>>>

-----------------------
VIBRATIONAL FREQUENCIES
-----------------------

   0:         0.00 cm**-1
   1:         0.00 cm**-1
   2:         0.00 cm**-1
   3:         0.00 cm**-1
   4:         0.00 cm**-1
   5:         0.00 cm**-1
   6:      1353.48 cm**-1
   7:      1353.95 cm**-1
   8:      1357.60 cm**-1
   9:      1575.80 cm**-1
  10:      1577.31 cm**-1
  11:      3048.11 cm**-1
  12:      3158.23 cm**-1
  13:      3161.71 cm**-1
  14:      3163.41 cm**-1


------------
NORMAL MODES
------------

These modes are the cartesian displacements weighted by the diagonal matrix
M(i,i)=1/sqrt(m[i]) where m[i] is the mass of the displaced atom
Thus, these vectors are normalized but *not* orthogonal

                  0          1          2          3          4          5    
      0       0.000000   0.000000   0.000000   0.000000   0.000000   0.000000
      1       0.000000   0.000000   0.000000   0.000000   0.000000   0.000000
      2       0.000000   0.000000   0.000000   0.000000   0.000000   0.000000
      3       0.000000   0.000000   0.000000   0.000000   0.000000   0.000000
      4       0.000000   0.000000   0.000000   0.000000   0.000000   0.000000
      5       0.000000   0.000000   0.000000   0.000000   0.000000   0.000000
      6       0.000000   0.000000   0.000000   0.000000   0.000000   0.000000
      7       0.000000   0.000000   0.000000   0.000000   0.000000   0.000000
      8       0.000000   0.000000   0.000000   0.000000   0.000000   0.000000
      9       0.000000   0.000000   0.000000   0.000000   0.000000   0.000000
     10       0.000000   0.000000   0.000000   0.000000   0.000000   0.000000
     11       0.000000   0.000000   0.000000   0.000000   0.000000   0.000000
     12       0.000000   0.000000   0.000000   0.000000   0.000000   0.000000
     13       0.000000   0.000000   0.000000   0.000000   0.000000   0.000000
     14       0.000000   0.000000   0.000000   0.000000   0.000000   0.000000
                  6          7          8          9         10         11    
      0      -0.018072   0.006026  -0.123157  -0.000032   0.000816  -0.000346
      1       0.071669   0.101777  -0.005536  -0.000178   0.000038  -0.000185
      2      -0.100332   0.071634   0.018187  -0.000052  -0.000011   0.001297
      3      -0.013641   0.004824  -0.091853  -0.000104   0.000636   0.505585
      4      -0.347776  -0.494414   0.027177  -0.498282   0.021088   0.000067
      5       0.486033  -0.347116  -0.092213  -0.020988  -0.498937   0.000674
      6      -0.119533  -0.122647   0.545788  -0.402527   0.241102  -0.169619
      7       0.165917  -0.263958   0.159971   0.000131   0.281210   0.416542
      8       0.204243  -0.472747  -0.158121   0.296827   0.333280  -0.228913
      9       0.255261  -0.147809   0.483871  -0.010062  -0.474706  -0.162860
     10      -0.337238  -0.499250   0.020287   0.500988  -0.007670  -0.009076
     11       0.011579  -0.011409   0.220052   0.006510  -0.168379   0.458252
     12       0.093248   0.193830   0.529699   0.413078   0.223250  -0.168987
     13      -0.334889   0.044886  -0.141475  -0.000716  -0.295076  -0.405326
     14       0.493670  -0.022292  -0.186423  -0.281733   0.334164  -0.245472
                  12         13         14    
      0       0.086339   0.000147  -0.032941
      1      -0.000757  -0.092408  -0.002398
      2       0.032891  -0.002518   0.086328
      3      -0.805124  -0.002018   0.297930
      4      -0.000168  -0.017943  -0.000454
      5       0.006450  -0.000520   0.016825
      6      -0.124068  -0.238874  -0.099521
      7       0.348881   0.573127   0.230511
      8      -0.185952  -0.325480  -0.110414
      9       0.024101  -0.001775   0.290416
     10       0.000296  -0.017826   0.016680
     11      -0.012726   0.004618  -0.820034
     12      -0.123695   0.240914  -0.096312
     13      -0.339985   0.563741  -0.218164
     14      -0.199687   0.351384  -0.115037


-----------
IR SPECTRUM
-----------

 Mode    freq (cm**-1)   T**2         TX         TY         TZ
-------------------------------------------------------------------
   6:      1353.48   15.624696  (  0.572745  -2.278738   3.178681)
   7:      1353.95   15.575758  ( -0.200574  -3.227854  -2.261966)
   8:      1357.60   12.674951  (  3.514566   0.166967  -0.543049)
   9:      1575.80    0.057004  (  0.000224  -0.238701   0.005029)
  10:      1577.31    0.030325  (  0.061148   0.018664  -0.161980)
  11:      3048.11    0.025378  (  0.009499  -0.020935   0.157638)
  12:      3158.23   24.003877  (  4.562025  -0.044190   1.786015)
  13:      3161.71   21.724703  ( -0.002346  -4.658874  -0.139959)
  14:      3163.41   23.192230  ( -1.759714  -0.108934   4.481492)

--------------
RAMAN SPECTRUM
--------------

 Mode    freq (cm**-1)   Activity   Depolarization
-------------------------------------------------------------------
   6:      1353.48      2.501290      0.749999
   7:      1353.95      2.477737      0.749982
   8:      1357.60      2.640520      0.749970
   9:      1575.80     30.189229      0.750000
  10:      1577.31     30.420627      0.749960
  11:      3048.11    122.220928      0.000087
  12:      3158.23     52.394004      0.749843
  13:      3161.71     52.881964      0.750000
  14:      3163.41     52.549386      0.749039

The first frequency considered to be a vibration is 6
The total number of vibrations considered is 9


--------------------------
THERMOCHEMISTRY AT 298.15K
--------------------------

Temperature         ... 298.15 K
Pressure            ... 1.00 atm
Total Mass          ... 16.04 AMU

Throughout the following assumptions are being made:
  (1) The electronic state is orbitally nondegenerate
  (2) There are no thermally accessible electronically excited states
  (3) Hindered rotations indicated by low frequency modes are not
      treated as such but are treated as vibrations and this may
      cause some error
  (4) All equations used are the standard statistical mechanics
      equations for an ideal gas
  (5) All vibrations are strictly harmonic

freq.    1353.48  E(vib)   ...       0.01 
freq.    1353.95  E(vib)   ...       0.01 
freq.    1357.60  E(vib)   ...       0.01 
freq.    1575.80  E(vib)   ...       0.00 
freq.    1577.31  E(vib)   ...       0.00 
freq.    3048.11  E(vib)   ...       0.00 
freq.    3158.23  E(vib)   ...       0.00 
freq.    3161.71  E(vib)   ...       0.00 
freq.    3163.41  E(vib)   ...       0.00 

------------
INNER ENERGY
------------

The inner energy is: U= E(el) + E(ZPE) + E(vib) + E(rot) + E(trans)
    E(el)   - is the total energy from the electronic structure calculation
              = E(kin-el) + E(nuc-el) + E(el-el) + E(nuc-nuc)
    E(ZPE)  - the the zero temperature vibrational energy from the frequency calculation
    E(vib)  - the the finite temperature correction to E(ZPE) due to population
              of excited vibrational states
    E(rot)  - is the rotational thermal energy
    E(trans)- is the translational thermal energy

Summary of contributions to the inner energy U:
Electronic energy                ...    -40.52321389 Eh
Zero point energy                ...      0.04499291 Eh      28.23 kcal/mol
Thermal vibrational correction   ...      0.00003398 Eh       0.02 kcal/mol
Thermal rotational correction    ...      0.00141627 Eh       0.89 kcal/mol
Thermal translational correction ...      0.00141627 Eh       0.89 kcal/mol
-----------------------------------------------------------------------
Total thermal energy                    -40.47535445 Eh


Summary of corrections to the electronic energy:
(perhaps to be used in another calculation)
Total thermal correction                  0.00286653 Eh       1.80 kcal/mol
Non-thermal (ZPE) correction              0.04499291 Eh      28.23 kcal/mol
-----------------------------------------------------------------------
Total correction                          0.04785944 Eh      30.03 kcal/mol


--------
ENTHALPY
--------

The enthalpy is H = U + kB*T
                kB is Boltzmann's constant
Total free energy                 ...    -40.47535445 Eh 
Thermal Enthalpy correction       ...      0.00094421 Eh       0.59 kcal/mol
-----------------------------------------------------------------------
Total Enthalpy                    ...    -40.47441025 Eh


Vibrational entropy computed according to the QRRHO of S. Grimme
Chem.Eur.J. 2012 18 9955


-------
ENTROPY
-------

The entropy contributions are T*S = T*(S(el)+S(vib)+S(rot)+S(trans)
     S(el)   - electronic entropy
     S(vib)  - vibrational entropy
     S(rot)  - rotational entropy
     S(trans)- translational entropy
The entropies will be listed as mutliplied by the temperature to get
units of energy

Electronic entropy                ...      0.00000000 Eh      0.00 kcal/mol
Vibrational entropy               ...      0.00003903 Eh      0.02 kcal/mol
Rotational entropy                ...      0.00612265 Eh      3.84 kcal/mol
Translational entropy             ...      0.01627961 Eh     10.22 kcal/mol
-----------------------------------------------------------------------
Final entropy term                ...      0.02244129 Eh     14.08 kcal/mol


CAUTION: The rotational entropy is not quite correctly treated here
         because it includes a symmetry number that is not yet correctly
         implemented in ORCA!
For a nonlinear molecule the correct rotational entropy is:
    S(rot) = R*(ln(qrot/sn)+1.5)
    R    = 8.31441 J/mol/K = 1.987191683e-3 kcal/mol/K
    qrot =  438.4403248
    sn is the rotational symmetry number. We have assumed 3 here
       if it is different for your molecule then you should correct
       the printed rotational entropy by manually evaluating the equation
       as given above

For convenience we print out the resulting values for sn=1 - 12:
 sn= 1  qrot/sn=     438.4403 T*S(rot)=     4.49 kcal/mol T*S(tot)=    14.73 kcal/mol
 sn= 2  qrot/sn=     219.2202 T*S(rot)=     4.08 kcal/mol T*S(tot)=    14.32 kcal/mol
 sn= 3  qrot/sn=     146.1468 T*S(rot)=     3.84 kcal/mol T*S(tot)=    14.08 kcal/mol
 sn= 4  qrot/sn=     109.6101 T*S(rot)=     3.67 kcal/mol T*S(tot)=    13.91 kcal/mol
 sn= 5  qrot/sn=      87.6881 T*S(rot)=     3.54 kcal/mol T*S(tot)=    13.78 kcal/mol
 sn= 6  qrot/sn=      73.0734 T*S(rot)=     3.43 kcal/mol T*S(tot)=    13.67 kcal/mol
 sn= 7  qrot/sn=      62.6343 T*S(rot)=     3.34 kcal/mol T*S(tot)=    13.58 kcal/mol
 sn= 8  qrot/sn=      54.8050 T*S(rot)=     3.26 kcal/mol T*S(tot)=    13.50 kcal/mol
 sn= 9  qrot/sn=      48.7156 T*S(rot)=     3.19 kcal/mol T*S(tot)=    13.43 kcal/mol
 sn=10  qrot/sn=      43.8440 T*S(rot)=     3.13 kcal/mol T*S(tot)=    13.37 kcal/mol
 sn=11  qrot/sn=      39.8582 T*S(rot)=     3.07 kcal/mol T*S(tot)=    13.31 kcal/mol
 sn=12  qrot/sn=      36.5367 T*S(rot)=     3.02 kcal/mol T*S(tot)=    13.26 kcal/mol


-------------------
GIBBS FREE ENTHALPY
-------------------

The Gibbs free enthalpy is G = H - T*S

Total enthalpy                    ...    -40.47441025 Eh 
Total entropy correction          ...     -0.02244129 Eh    -14.08 kcal/mol
-----------------------------------------------------------------------
Final Gibbs free enthalpy         ...    -40.49685153 Eh

For completeness - the Gibbs free enthalpy minus the electronic energy
G-E(el)                           ...      0.02636236 Eh     16.54 kcal/mol


Total Time for Numerical Frequencies  :        93.166 sec
Time for Reference State(s)           :         2.387 sec
Time for Displacements                :        90.715 sec

Timings for individual modules:

Sum of individual times         ...        6.243 sec (=   0.104 min)
GTO integral calculation        ...        0.564 sec (=   0.009 min)   9.0 %
SCF iterations                  ...        2.889 sec (=   0.048 min)  46.3 %
Solution of CP-SCF eqns.        ...        1.752 sec (=   0.029 min)  28.1 %
SCF Gradient evaluation         ...        1.038 sec (=   0.017 min)  16.6 %
                             ****ORCA TERMINATED NORMALLY****
TOTAL RUN TIME: 0 days 0 hours 1 minutes 37 seconds 232 msec
